<simulation verbosity='high'>
   <total_steps>150</total_steps>
   <output prefix='simulation'>
      <properties shape='(7)'>
       [ step, time{picosecond}, conserved{electronvolt}, temperature{kelvin}, kinetic_cv{electronvolt}, 
         potential{electronvolt}, pressure_cv{megapascal} ]
      </properties>
      <trajectory filename='pos' stride='20'>positions</trajectory>
      <trajectory filename='extra' stride='20'>extras</trajectory>
      <checkpoint stride='200'>0</checkpoint>
   </output>
   <prng>
      <set_pos>40</set_pos>
      <state shape='(624)'>
       [ 1866326543, 685907772, 2087960769, 2153475394, 3121602903, 
         869840962, 3466783628, 295859864, 4236133054, 4206088905, 
         722988098, 3600989431, 683122503, 978702410, 2980074411, 
         1177920565, 3416045777, 3187969282, 624420304, 3863198215, 
         2516691700, 392088048, 2392302785, 3492561743, 1444230589, 
         4085897954, 458585758, 575728780, 1072049682, 1036996871, 
         1689257178, 4047970042, 956044389, 3296672494, 1245258113, 
         2797054788, 235675463, 3224018168, 3880598985, 95692451, 
         2529120652, 4294335199, 1820652251, 2986817629, 2130966727, 
         1421041122, 51424052, 2043767775, 3300085041, 2047980574, 
         1904431294, 2347850310, 1494718117, 2393005122, 1170621273, 
         1980815313, 20833427, 2789366113, 3678944780, 2918112158, 
         535879373, 2142728905, 2360406173, 3517731890, 3438519670, 
         2010985549, 1334124112, 690001484, 3809814961, 2395244050, 
         3747139262, 3825698628, 4118240017, 1902104105, 39600966, 
         368478083, 1224792578, 3047217962, 3964992181, 853921907, 
         4019291894, 2396336060, 3989807395, 707425076, 4099571772, 
         1584664812, 3275754033, 1974105612, 4174811818, 1850773727, 
         985950850, 1404456006, 1645620000, 976516805, 527298380, 
         815686611, 3186875650, 3011371105, 32804373, 125536255, 
         2236143047, 87128032, 1712402718, 3928307244, 2133040136, 
         1333358950, 1668345970, 3086972897, 4018027461, 2022091181, 
         3610075880, 2685139912, 3780861767, 60652132, 3393556355, 
         4253771449, 1175299062, 984082177, 2658654382, 3676030799, 
         2329237383, 2952035662, 627918836, 270568559, 1802114860, 
         271106925, 1773246609, 1882766024, 611765206, 1925721901, 
         109171785, 1887846555, 1386903487, 2000781591, 2747692014, 
         2168672095, 1272476903, 3687511597, 508016185, 1532952213, 
         454723293, 596244666, 3503541214, 3555378114, 398446209, 
         3080882961, 3998163345, 2543052460, 3617993958, 3775133378, 
         4056927023, 2336647535, 1195633065, 580110375, 4230851181, 
         2413581233, 2967394996, 1143742721, 1610205314, 4152886935, 
         3237401718, 2377398433, 1749704757, 3962970588, 3982048492, 
         563090657, 3012176345, 2025112801, 2689689129, 1494599598, 
         538938746, 2038379743, 1278504588, 1555890847, 808927115, 
         2888270516, 3583451274, 310940062, 3022455899, 1685876962, 
         2024581441, 3016463926, 126422722, 2679522535, 1151452021, 
         1437163919, 303359021, 1974471877, 3818372842, 3659546203, 
         4226731514, 4154811845, 3007185964, 2394391305, 2619212711, 
         2330921959, 3175082681, 3897757770, 2972020553, 1511222080, 
         232380361, 3105273570, 295646820, 3039077149, 501957235, 
         968161541, 3677493215, 4150587797, 3047724550, 2796193816, 
         172846377, 1536423911, 953251337, 3636527647, 1885841333, 
         3143402322, 3791555862, 2365242849, 1259490075, 488542726, 
         911615063, 1635271641, 24418466, 3559025221, 1276279701, 
         3956243677, 3376656892, 1800880479, 1342667115, 1004205291, 
         2012210865, 2525145968, 3679640172, 500003458, 1972342478, 
         3178606609, 859659622, 1621548532, 380883217, 118629123, 
         3066227528, 1634695601, 3408422115, 3150407409, 1532801988, 
         3936393608, 3455155173, 1396220938, 1060416400, 348107492, 
         780491452, 3721949288, 4174259607, 3429276351, 2959160419, 
         1205384430, 323172133, 409324644, 3092946620, 4042352465, 
         1197868768, 4233625496, 621057529, 3780447010, 1552009598, 
         2506093700, 4048377959, 1422877595, 4253596320, 2560410993, 
         3785094671, 2920694403, 2974917971, 3623961470, 2095253229, 
         1142080453, 1991588730, 4229607840, 681804275, 1463370773, 
         1367455093, 405369454, 4165907169, 1234174515, 4116043324, 
         2918771974, 3778697959, 3945228116, 1999079016, 4071139304, 
         2397310113, 2021134068, 626661245, 3321134013, 4243175469, 
         1744018150, 411198821, 1134643964, 2044985358, 931982332, 
         3284198842, 1924301962, 3168130201, 1714082280, 310911745, 
         27861056, 4040698371, 681058302, 1171964552, 614458489, 
         758595423, 772436827, 2451673864, 2773935313, 2622019656, 
         2685975021, 173937400, 3575144760, 2598497196, 1687919038, 
         3876308571, 2098250284, 1082007734, 446617728, 186131743, 
         834855223, 942608389, 3061591979, 2240098070, 1586726273, 
         2299346602, 3058127557, 3986362859, 3072912203, 2538631601, 
         1300563266, 2706478912, 698831810, 2262063927, 2921211581, 
         3036549289, 3124642439, 2472465098, 839862323, 968994422, 
         3717835967, 1006471580, 2868387542, 2271118626, 2530984748, 
         2747726738, 4054644332, 741004127, 649567058, 3367907709, 
         4265020055, 3464277884, 587885402, 3219698462, 2830280298, 
         2329379627, 4067938138, 3469589295, 2252597386, 1807205663, 
         2065125799, 2976044405, 1690906961, 827212922, 310743472, 
         3985792255, 3791060088, 4079031901, 2062591453, 2803849197, 
         450632976, 4014064299, 1153954461, 304346956, 1202467918, 
         4170665156, 957151573, 785862236, 3674256398, 1095121158, 
         2685673941, 1561693077, 993609665, 42577211, 1366342283, 
         305482138, 676243641, 1868401737, 3422856362, 1054351764, 
         3641541180, 1856646535, 2418523285, 1739686998, 1137515455, 
         2538045628, 1276364162, 1870374097, 215185816, 3062775663, 
         1391371728, 319993123, 3307232634, 270294781, 4138058327, 
         3289345826, 2849898652, 1758115120, 3772936282, 1965965942, 
         1716324643, 2146207539, 569397328, 137714000, 3990151427, 
         2529764257, 2959327508, 387940019, 1556524246, 326519840, 
         923028030, 371648338, 3908399793, 2899992011, 2462678649, 
         3155976653, 1648358622, 2324091884, 3041940282, 3801764451, 
         944986534, 3114735274, 3310281041, 2750757908, 4241033903, 
         497319547, 1516105683, 3509812386, 939374610, 293161781, 
         4197412814, 3427724302, 2248815598, 3535404576, 1127280543, 
         1601729445, 2533810929, 3773589302, 1906363710, 2449593305, 
         775120261, 1384424454, 3550363656, 1381490921, 710620758, 
         3357414718, 3830792434, 3058959855, 2486523625, 1683058123, 
         3190659964, 81303946, 1046366210, 2667062138, 1199762933, 
         2513370765, 980553620, 681248866, 2777487554, 1905752218, 
         3386661027, 450926552, 1370763258, 3570167835, 3816471298, 
         2989768157, 3672028444, 3725608619, 2117944564, 824443004, 
         3079160759, 2998585047, 3164198182, 1176749805, 4183422690, 
         1057174054, 1474997928, 2235362452, 2575084984, 1541903452, 
         885369268, 318731214, 1875425943, 334639780, 3600977087, 
         4294830244, 3546395962, 2501563032, 693899479, 54154830, 
         1384459610, 3838269142, 1294072496, 133396650, 2695105345, 
         3613927020, 2082622528, 48363870, 3820323623, 3327157243, 
         4228293571, 3981523831, 637435077, 2010735741, 10094853, 
         1002071272, 4119895184, 79469092, 2771055534, 2458811689, 
         1113526094, 1982265261, 2986508300, 3014931001, 2088920865, 
         2132619480, 826470187, 3669934604, 3393509829, 2588701324, 
         1422574383, 558532817, 42148738, 3867550469, 2888952286, 
         610131521, 1943242159, 107790313, 578721980, 2066237019, 
         3421209108, 2018815029, 361250008, 1786461855, 690758327, 
         1305521153, 3863420403, 875211764, 3251636436, 1033237748, 
         316693305, 2030897384, 263362193, 620509720, 4070905714, 
         1581872025, 1247680735, 351273772, 1412825530, 2513134868, 
         3934802610, 258308353, 99224765, 2433090941, 2334145543, 
         3413991057, 1235780381, 1774258745, 799507750, 2734008412, 
         2706573288, 1188548502, 96153403, 1072712365, 3190370146, 
         2615781513, 1645869308, 2750385011, 311992183, 319782460, 
         164714900, 3914738872, 1991676398, 3276097551, 1482034523, 
         2461775001, 1004923232, 1196006372, 2530516714, 1699189417, 
         3807160785, 960381954, 1420273374, 277545590, 1938708652, 
         2452592390, 4114238229, 2244869818, 929727544, 571989332, 
         2047278136, 3007592409, 185515764, 3700178625, 377178066, 
         2066855229, 2947770775, 29242138, 705267286, 3554662401, 
         509128735, 4286033734, 2339325597, 1368842058, 1026261782, 
         732217886, 1036245108, 3821087373, 2151443551 ]
      </state>
      <seed>31415</seed>
   </prng>
   <ffcommittee <threaded> True</threaded>
 name='committee'>
      <weights shape='(2)'> [   1.00000000e+00,   1.00000000e+00 ] </weights>
      <al_thresh>  3.55000000e-01</al_thresh>
      <ffsocket mode='unix' name='lammps-1'>
         <address>h2o-pimd.1</address>
      </ffsocket>
      <ffsocket mode='unix' name='lammps-2'>
         <address>h2o-pimd.2</address>
      </ffsocket>
   </ffcommittee>
   <system>
      <cell shape='(3, 3)'>
       [   3.52330000e+01,   2.15739903e-15,   2.15739903e-15,   0.00000000e+00,   3.52330000e+01, 
           2.15739903e-15,   0.00000000e+00,   0.00000000e+00,   3.52330000e+01 ]
      </cell>
      <motion mode='dynamics'>
         <dynamics mode='nvt'>
            <timestep>  2.06706865e+01</timestep>
            <nmts shape='(1)'> [ 1 ] </nmts>
            <thermostat mode='svr'>
               <tau>  4.13413730e+03</tau>
            </thermostat>
         </dynamics>
      </motion>
      <beads natoms='648' nbeads='1'>
         <q shape='(1, 1944)'>
          [   3.84600000e+00,   5.67200000e+00,   1.32300000e+00,   2.97900000e+00,   7.05400000e+00, 
              8.57000000e-01,   5.52500000e+00,   5.69700000e+00,   4.51000000e-01,   3.45570000e+01, 
              3.43410000e+01,   3.07800000e+00,   3.37220000e+01,   3.46890000e+01,   4.84000000e+00, 
              3.60290000e+01,   3.32200000e+01,   3.71100000e+00,   5.59100000e+00,   1.96300000e+00, 
              1.34770000e+01,   7.26500000e+00,   1.86400000e+00,   1.38510000e+01,   5.00900000e+00, 
              3.55500000e+00,   1.39160000e+01,   1.06000000e+00,   2.06100000e+00,   2.17180000e+01, 
              7.57000000e-01,   2.61000000e-01,   2.18200000e+01,   2.13000000e-01,   3.01300000e+00, 
              2.30470000e+01,   1.20000000e+00,   1.33700000e+00,   2.90060000e+01,   8.18000000e-01, 
              1.88400000e+00,   3.07320000e+01,   2.88300000e+00,   1.82500000e+00,   2.90110000e+01, 
              1.33100000e+00,   1.38600000e+00,   3.43060000e+01,   2.39200000e+00,   2.89800000e+00, 
              3.48460000e+01,   8.14000000e-01,   5.32000000e-01,   3.58360000e+01,   3.14510000e+01, 
              1.02010000e+01,   7.26000000e-01,   3.22820000e+01,   1.08770000e+01,  -7.50000000e-01, 
              3.09200000e+01,   1.15940000e+01,   1.67700000e+00,   8.36000000e-01,   1.08080000e+01, 
              4.29800000e+00,   3.05000000e-01,   1.06430000e+01,   2.79300000e+00,  -3.56000000e-01, 
              1.03340000e+01,   5.52400000e+00,   3.43810000e+01,   5.97900000e+00,   9.19400000e+00, 
              3.36160000e+01,   7.67300000e+00,   8.85700000e+00,   3.51150000e+01,   5.26000000e+00, 
              7.61800000e+00,   3.32120000e+01,   6.48000000e+00,   2.42780000e+01,   3.16240000e+01, 
              6.90800000e+00,   2.35210000e+01,   3.25440000e+01,   4.99000000e+00,   2.49820000e+01, 
              1.99200000e+00,   9.00200000e+00,   2.68630000e+01,   1.85600000e+00,   1.01750000e+01, 
              2.55790000e+01,   5.19000000e-01,   8.09900000e+00,   2.63860000e+01,   2.05400000e+00, 
              8.66000000e+00,   3.25150000e+01,   2.16700000e+00,   8.72700000e+00,   3.04940000e+01, 
              2.37400000e+00,   1.05130000e+01,   3.30380000e+01,   3.40200000e+00,   1.66390000e+01, 
              3.00800000e+00,   4.12700000e+00,   1.58720000e+01,   4.44600000e+00,   2.90500000e+00, 
              1.83390000e+01,   3.16000000e+00,   4.22200000e+00,   1.54440000e+01,   8.07200000e+00, 
              5.21100000e+00,   1.67560000e+01,   8.29900000e+00,   2.56000000e+00,   1.54920000e+01, 
              8.86000000e+00,   2.83100000e+00,   9.24600000e+00,   1.64880000e+01,   2.86900000e+00, 
              8.02300000e+00,   1.80500000e+01,   3.96000000e+00,   8.46700000e+00,   1.51540000e+01, 
              5.56300000e+00,   6.00300000e+00,   2.09070000e+01,   4.65300000e+00,   4.63800000e+00, 
              2.14800000e+01,   6.40500000e+00,   6.20800000e+00,   2.25290000e+01,   2.08700000e+00, 
              1.33700000e+01,   2.29130000e+01,   2.83200000e+00,   1.48040000e+01,   2.34220000e+01, 
              1.43400000e+00,   1.35090000e+01,   2.11960000e+01,   3.36900000e+00,   1.78860000e+01, 
              2.51090000e+01,   3.65500000e+00,   1.72000000e+01,   2.67660000e+01,   4.77200000e+00, 
              1.89770000e+01,   2.45000000e+01,   3.47640000e+01,   2.08030000e+01,   9.48000000e-01, 
              3.52100000e+01,   2.12670000e+01,   2.81600000e+00,   3.59620000e+01,   2.17260000e+01, 
              1.31000000e-01,   2.83600000e+00,   2.41780000e+01,   1.52290000e+01,   2.79500000e+00, 
              2.23460000e+01,   1.48760000e+01,   2.41400000e+00,   2.41150000e+01,   1.71300000e+01, 
              3.30000000e+01,   2.44810000e+01,   1.52300000e+01,   3.46400000e+01,   2.48040000e+01, 
              1.50130000e+01,   3.24010000e+01,   2.57640000e+01,   1.42950000e+01,   4.04000000e-01, 
              2.67790000e+01,   2.34000000e+01,   1.35300000e+00,   2.72480000e+01,   2.49870000e+01, 
              1.54600000e+00,   2.80500000e+01,   2.23170000e+01,   3.42220000e+01,   2.13800000e+01, 
              2.54180000e+01,   3.56690000e+01,   2.01510000e+01,   2.53170000e+01,   3.29600000e+01, 
              2.11800000e+01,   2.39920000e+01,   3.32590000e+01,   1.74380000e+01,   3.24800000e+01, 
              3.33140000e+01,   1.87820000e+01,   3.38830000e+01,   3.27430000e+01,   1.81810000e+01, 
              3.08710000e+01,   4.46300000e+00,   2.19790000e+01,   3.93600000e+00,   5.85600000e+00, 
              2.30840000e+01,   3.40000000e+00,   3.98600000e+00,   2.21800000e+01,   5.60200000e+00, 
              6.25800000e+00,   2.58510000e+01,   8.52000000e+00,   5.76700000e+00,   2.76930000e+01, 
              8.47600000e+00,   7.20200000e+00,   2.55060000e+01,   1.01860000e+01,   6.01000000e-01, 
              2.97370000e+01,   1.27470000e+01,  -6.85000000e-01,   3.08420000e+01,   1.23500000e+01, 
              1.33600000e+00,   3.07160000e+01,   1.40310000e+01,   7.56300000e+00,   2.81910000e+01, 
              2.43330000e+01,   9.20100000e+00,   2.88280000e+01,   2.46840000e+01,   7.38100000e+00, 
              2.76210000e+01,   2.27990000e+01,   3.65300000e+00,   2.71090000e+01,   2.77720000e+01, 
              5.12600000e+00,   2.70150000e+01,   2.67720000e+01,   3.03100000e+00,   2.87560000e+01, 
              2.76980000e+01,   2.59600000e+00,   2.39910000e+01,   3.24760000e+01,   2.87900000e+00, 
              2.47910000e+01,   3.08590000e+01,   4.00300000e+00,   2.29130000e+01,   3.27010000e+01, 
              3.08300000e+00,   3.13170000e+01,   3.64400000e+00,   4.13300000e+00,   3.05890000e+01, 
              2.53900000e+00,   4.21800000e+00,   3.21730000e+01,   5.03700000e+00,   4.66100000e+00, 
              3.05550000e+01,   9.36800000e+00,   3.18400000e+00,   2.98430000e+01,   1.01320000e+01, 
              4.35800000e+00,   3.24480000e+01,   9.12600000e+00,   3.46500000e+00,   3.25370000e+01, 
              1.57780000e+01,   5.07200000e+00,   3.18190000e+01,   1.59030000e+01,   4.05500000e+00, 
              3.42570000e+01,   1.52840000e+01,   4.21500000e+00,   2.91530000e+01,   2.03170000e+01, 
              3.65800000e+00,   3.01760000e+01,   1.88420000e+01,   4.95900000e+00,   3.02910000e+01, 
              2.14490000e+01,   1.12600000e+00,   3.13330000e+01,   2.87680000e+01,   2.39500000e+00, 
              3.11240000e+01,   2.99250000e+01,   7.68000000e-01,   3.30920000e+01,   2.88980000e+01, 
              4.88100000e+00,   3.26160000e+01,   3.23020000e+01,   6.58800000e+00,   3.29110000e+01, 
              3.17250000e+01,   4.48600000e+00,   3.40370000e+01,   3.32490000e+01,   8.96200000e+00, 
              5.55600000e+00,   1.51000000e-01,   9.65200000e+00,   6.99100000e+00,   8.59000000e-01, 
              9.17300000e+00,   4.47700000e+00,   1.64500000e+00,   1.83300000e+00,   3.51800000e+00, 
              5.67900000e+00,   2.88900000e+00,   2.73100000e+00,   6.78800000e+00,   2.78900000e+00, 
              4.18700000e+00,   4.14700000e+00,   1.05100000e+01,   3.47260000e+01,   1.30730000e+01, 
              1.19200000e+01,   3.41180000e+01,   1.19190000e+01,   1.12950000e+01,   3.49680000e+01, 
              1.47410000e+01,   7.21200000e+00,   4.20000000e-02,   2.24540000e+01,   6.92400000e+00, 
              4.70000000e-01,   2.41720000e+01,   8.31900000e+00,   1.22800000e+00,   2.16530000e+01, 
              6.36500000e+00,   2.01000000e+00,   2.75440000e+01,   5.95400000e+00,   3.58500000e+00, 
              2.68520000e+01,   7.75800000e+00,   2.54900000e+00,   2.86960000e+01,   1.08330000e+01, 
              3.14000000e+00,   3.07870000e+01,   1.26970000e+01,   2.97500000e+00,   3.08670000e+01, 
              1.03890000e+01,   3.70000000e+00,   3.24040000e+01,   8.68400000e+00,   9.34200000e+00, 
              3.91200000e+00,   6.98500000e+00,   9.25600000e+00,   4.77300000e+00,   8.68400000e+00, 
              1.08090000e+01,   3.01100000e+00,   4.87300000e+00,   9.91900000e+00,   7.70700000e+00, 
              3.69800000e+00,   9.77100000e+00,   6.19400000e+00,   5.04700000e+00,   1.19610000e+01, 
              7.62400000e+00,   1.00310000e+01,   5.01800000e+00,   9.69900000e+00,   9.67500000e+00, 
              3.38200000e+00,   1.03400000e+01,   9.13200000e+00,   5.98700000e+00,   1.08250000e+01, 
              1.12460000e+01,   3.91800000e+00,   2.19290000e+01,   1.26140000e+01,   2.77000000e+00, 
              2.23410000e+01,   1.20730000e+01,   5.68600000e+00,   2.14970000e+01,   6.82500000e+00, 
              7.16400000e+00,   2.57080000e+01,   8.03600000e+00,   8.37400000e+00,   2.59800000e+01, 
              5.20600000e+00,   7.90000000e+00,   2.58910000e+01,   1.01710000e+01,   1.28110000e+01, 
              2.95000000e-01,   1.00330000e+01,   1.28180000e+01,  -1.60900000e+00,   9.88000000e+00, 
              1.44920000e+01,   4.80000000e-01,   8.19000000e+00,   1.74020000e+01,   1.25300000e+00, 
              9.47200000e+00,   1.85310000e+01,   1.25300000e+00,   6.35100000e+00,   1.78170000e+01, 
              1.56800000e+00,   1.12330000e+01,   1.61880000e+01,   8.29900000e+00,   1.02910000e+01, 
              1.76890000e+01,   8.16600000e+00,   1.27680000e+01,   1.71230000e+01,   8.73300000e+00, 
              6.38600000e+00,   8.00200000e+00,   1.28460000e+01,   7.70100000e+00,   8.89600000e+00, 
              1.36550000e+01,   5.59100000e+00,   8.87700000e+00,   1.15190000e+01,   8.18400000e+00, 
              1.04190000e+01,   1.88480000e+01,   9.49800000e+00,   9.43400000e+00,   1.99050000e+01, 
              6.88200000e+00,   9.02700000e+00,   1.89480000e+01,   1.08060000e+01,   1.44310000e+01, 
              2.13280000e+01,   9.17700000e+00,   1.35310000e+01,   2.06700000e+01,   1.13440000e+01, 
              1.56960000e+01,   2.04480000e+01,   9.23700000e+00,   1.39280000e+01,   3.03410000e+01, 
              1.07790000e+01,   1.48390000e+01,   3.05220000e+01,   9.96500000e+00,   1.31920000e+01, 
              2.88990000e+01,   1.09180000e+01,   2.17070000e+01,   1.86400000e+00,   1.02800000e+01, 
              2.34490000e+01,   2.27900000e+00,   1.27080000e+01,   2.14560000e+01,   1.74900000e+00, 
              9.35300000e+00,   1.61250000e+01,   1.39270000e+01,   9.93800000e+00,   1.75940000e+01, 
              1.46180000e+01,   9.51800000e+00,   1.63600000e+01,   1.22440000e+01,   1.03710000e+01, 
              1.11070000e+01,   1.42680000e+01,   9.64400000e+00,   1.04060000e+01,   1.58590000e+01, 
              9.43400000e+00,   1.25230000e+01,   1.41170000e+01,   3.35100000e+00,   2.27690000e+01, 
              2.01960000e+01,   2.05500000e+00,   2.36860000e+01,   2.15030000e+01,   2.45200000e+00, 
              2.14010000e+01,   1.94130000e+01,   6.83600000e+00,   2.13290000e+01,   2.31990000e+01, 
              8.24900000e+00,   2.08480000e+01,   2.23200000e+01,   5.66800000e+00,   2.18410000e+01, 
              2.18860000e+01,   4.60400000e+00,   1.56490000e+01,   3.00430000e+01,   6.45300000e+00, 
              1.52170000e+01,   3.02070000e+01,   3.82200000e+00,   1.47620000e+01,   3.15620000e+01, 
              7.12500000e+00,   1.99760000e+01,   9.42100000e+00,   5.91800000e+00,   2.04530000e+01, 
              1.07300000e+01,   8.09900000e+00,   2.14960000e+01,   9.49100000e+00,   9.06300000e+00, 
              2.59120000e+01,   1.31860000e+01,   1.03500000e+01,   2.65720000e+01,   1.23670000e+01, 
              9.68000000e+00,   2.43670000e+01,   1.36970000e+01,   8.02200000e+00,   2.23430000e+01, 
              1.70420000e+01,   9.14400000e+00,   2.33670000e+01,   1.80740000e+01,   6.56200000e+00, 
              2.34620000e+01,   1.68520000e+01,   1.07620000e+01,   2.62850000e+01,   1.99630000e+01, 
              1.10360000e+01,   2.79660000e+01,   2.05380000e+01,   1.10780000e+01,   2.54010000e+01, 
              2.14560000e+01,   9.15800000e+00,   2.29020000e+01,   2.83910000e+01,   8.21900000e+00, 
              2.35280000e+01,   2.70850000e+01,   8.08900000e+00,   2.17600000e+01,   2.95090000e+01, 
              6.21900000e+00,   2.01580000e+01,   3.19210000e+01,   5.63500000e+00,   1.85110000e+01, 
              3.11610000e+01,   7.53000000e+00,   1.96240000e+01,   3.30710000e+01,   1.11910000e+01, 
              3.15090000e+01,   2.61700000e+00,   1.04600000e+01,   3.22140000e+01,   4.10800000e+00, 
              1.31760000e+01,   3.17510000e+01,   2.57700000e+00,   4.74800000e+00,   5.50000000e-02, 
              8.60500000e+00,   5.38000000e+00,   5.17000000e-01,   1.01830000e+01,   6.05000000e+00, 
             -3.06000000e-01,   7.48000000e+00,   8.69500000e+00,   3.08090000e+01,   1.57310000e+01, 
              9.18900000e+00,   3.21030000e+01,   1.44950000e+01,   8.44700000e+00,   2.90690000e+01, 
              1.48680000e+01,   1.01280000e+01,   3.14020000e+01,   2.07660000e+01,   9.45600000e+00, 
              3.09050000e+01,   1.91550000e+01,   9.02000000e+00,   3.27310000e+01,   2.14150000e+01, 
              1.22380000e+01,   3.01620000e+01,   2.58370000e+01,   1.14180000e+01,   3.09080000e+01, 
              2.71100000e+01,   1.23960000e+01,   3.13310000e+01,   2.46780000e+01,   1.03950000e+01, 
              3.25370000e+01,   3.06240000e+01,   1.10420000e+01,   3.43390000e+01,   3.07510000e+01, 
              1.13780000e+01,   3.14860000e+01,   3.15380000e+01,   1.04380000e+01,   3.62600000e+00, 
              5.08700000e+00,   1.24350000e+01,   4.08200000e+00,   5.13600000e+00,   9.82200000e+00, 
              4.28400000e+00,   6.68100000e+00,   1.47620000e+01,   3.40100000e+00,   1.37760000e+01, 
              1.65180000e+01,   3.82400000e+00,   1.33760000e+01,   1.37520000e+01,   4.75700000e+00, 
              1.29640000e+01,   1.23820000e+01,   1.01200000e+00,   1.76430000e+01,   1.33460000e+01, 
              1.99700000e+00,   1.64440000e+01,   1.19310000e+01,   2.13300000e+00,   1.89980000e+01, 
              1.52780000e+01,   1.29300000e+00,   2.45590000e+01,   1.60710000e+01,   9.46000000e-01, 
              2.63650000e+01,   1.57940000e+01,   1.99000000e-01,   2.34990000e+01,   2.22260000e+01, 
              3.16270000e+01,   2.47120000e+01,   2.33380000e+01,   3.25950000e+01,   2.38760000e+01, 
              2.21610000e+01,   3.00530000e+01,   2.41320000e+01,   1.56400000e+01,   1.84700000e+00, 
              3.27170000e+01,   1.74880000e+01,   2.47300000e+00,   3.18740000e+01,   1.64030000e+01, 
              8.69000000e-01,   3.42670000e+01,   1.48580000e+01,   1.01990000e+01,   2.75400000e+00, 
              1.33600000e+01,   1.07120000e+01,   2.28200000e+00,   1.45600000e+01,   9.31600000e+00, 
              4.55900000e+00,   1.57170000e+01,   8.46900000e+00,   1.07390000e+01,   1.73230000e+01, 
              9.58100000e+00,   1.08750000e+01,   1.45740000e+01,   9.63100000e+00,   1.02210000e+01, 
              1.52480000e+01,   1.03980000e+01,   1.65250000e+01,   1.63240000e+01,   9.18100000e+00, 
              1.61490000e+01,   1.41720000e+01,   1.04880000e+01,   1.50980000e+01,   1.32260000e+01, 
              8.43800000e+00,   2.08010000e+01,   1.40430000e+01,   8.99600000e+00,   1.92950000e+01, 
              1.46610000e+01,   7.80200000e+00,   2.20930000e+01,   1.01730000e+01,   1.09610000e+01, 
              2.58750000e+01,   1.14770000e+01,   1.02230000e+01,   2.69400000e+01,   1.12690000e+01, 
              1.07380000e+01,   2.43430000e+01,   1.27920000e+01,   7.73700000e+00,   2.91730000e+01, 
              1.21990000e+01,   6.03800000e+00,   2.94750000e+01,   1.44270000e+01,   7.45000000e+00, 
              2.96170000e+01,   1.51800000e+01,   1.94980000e+01,   3.57800000e+00,   1.48830000e+01, 
              1.75960000e+01,   4.08000000e+00,   1.67540000e+01,   1.95790000e+01,   2.62600000e+00, 
              1.25170000e+01,   1.10930000e+01,   7.70100000e+00,   1.22240000e+01,   1.27780000e+01, 
              7.55500000e+00,   1.11500000e+01,   1.03930000e+01,   7.05700000e+00,   1.62660000e+01, 
              1.62710000e+01,   1.07580000e+01,   1.65070000e+01,   1.57950000e+01,   1.27680000e+01, 
              1.77250000e+01,   1.69770000e+01,   1.02920000e+01,   1.40690000e+01,   1.83990000e+01, 
              1.88970000e+01,   1.55130000e+01,   1.75230000e+01,   1.81550000e+01,   1.49580000e+01, 
              1.87090000e+01,   2.06730000e+01,   1.40990000e+01,   1.54800000e+01,   2.55100000e+01, 
              1.36980000e+01,   1.68720000e+01,   2.69380000e+01,   1.25670000e+01,   1.53790000e+01, 
              2.44440000e+01,   1.33090000e+01,   1.75740000e+01,   3.02920000e+01,   1.49370000e+01, 
              1.69340000e+01,   3.08100000e+01,   1.39690000e+01,   1.94940000e+01,   3.00120000e+01, 
              1.83710000e+01,   2.32570000e+01,   9.25000000e-01,   1.94790000e+01,   2.34800000e+01, 
              2.32100000e+00,   1.90870000e+01,   2.43250000e+01,  -3.69000000e-01,   1.21000000e+01, 
              2.17300000e+01,   1.13550000e+01,   1.31410000e+01,   2.22870000e+01,   1.27430000e+01, 
              1.34670000e+01,   2.22360000e+01,   1.02440000e+01,   1.21630000e+01,   2.32900000e+01, 
              2.35970000e+01,   1.13240000e+01,   2.27360000e+01,   2.49490000e+01,   1.38820000e+01, 
              2.28720000e+01,   2.38400000e+01,   2.01730000e+01,   2.67610000e+01,   2.26280000e+01, 
              2.02060000e+01,   2.65320000e+01,   2.07920000e+01,   2.15560000e+01,   2.57420000e+01, 
              2.33890000e+01,   1.67010000e+01,   2.11650000e+01,   2.26050000e+01,   1.80280000e+01, 
              2.06860000e+01,   2.38480000e+01,   1.71040000e+01,   2.28660000e+01,   2.19490000e+01, 
              1.13910000e+01,   2.64610000e+01,   3.37050000e+01,   9.84100000e+00,   2.71920000e+01, 
              3.40480000e+01,   1.17760000e+01,   2.55400000e+01,   3.52430000e+01,   9.89800000e+00, 
              2.59890000e+01,   4.55300000e+00,   8.90200000e+00,   2.61310000e+01,   6.03900000e+00, 
              1.02870000e+01,   2.78060000e+01,   4.37600000e+00,   1.43080000e+01,   2.69600000e+01, 
              1.08770000e+01,   1.53020000e+01,   2.74050000e+01,   1.21730000e+01,   1.54630000e+01, 
              2.61510000e+01,   9.63300000e+00,   1.34330000e+01,   2.29600000e+01,   1.69040000e+01, 
              1.34090000e+01,   2.41310000e+01,   1.81320000e+01,   1.36240000e+01,   2.11910000e+01, 
              1.75200000e+01,   1.64090000e+01,   2.67680000e+01,   2.68750000e+01,   1.75900000e+01, 
              2.69870000e+01,   2.54310000e+01,   1.47510000e+01,   2.77030000e+01,   2.62300000e+01, 
              1.44050000e+01,   2.27330000e+01,   2.98920000e+01,   1.54230000e+01,   2.30790000e+01, 
              2.84940000e+01,   1.28260000e+01,   2.32590000e+01,   2.94160000e+01,   6.90500000e+00, 
              2.94080000e+01,   7.49000000e-01,   8.42800000e+00,   3.04830000e+01,   1.56700000e+00, 
              6.35300000e+00,   3.08140000e+01,  -4.44000000e-01,   9.18900000e+00,   3.41590000e+01, 
              6.50900000e+00,   1.01980000e+01,   3.41930000e+01,   8.00200000e+00,   9.89000000e+00, 
              3.56920000e+01,   5.78500000e+00,   1.42560000e+01,   3.23160000e+01,   9.36900000e+00, 
              1.57330000e+01,   3.28670000e+01,   9.48600000e+00,   1.47540000e+01,   3.06700000e+01, 
              1.00900000e+01,   1.47140000e+01,   3.08410000e+01,   1.65160000e+01,   1.37480000e+01, 
              2.95510000e+01,   1.72790000e+01,   1.32180000e+01,   3.19330000e+01,   1.66140000e+01, 
              1.84090000e+01,   3.36410000e+01,   2.06110000e+01,   1.96010000e+01,   3.22740000e+01, 
              2.11150000e+01,   1.73600000e+01,   3.26550000e+01,   1.95180000e+01,   1.60620000e+01, 
              2.86380000e+01,   3.22070000e+01,   1.46480000e+01,   2.79580000e+01,   3.32530000e+01, 