<simulation verbosity='high'>
   <total_steps>1500000</total_steps>
   <output prefix='single-point'>
      <properties shape='(1)'> [ potential ] </properties>
      <trajectory filename='pos'>positions</trajectory>
      <trajectory filename='frc'>forces</trajectory>
      <checkpoint stride='100'>0</checkpoint>
   </output>
   <prng>
      <set_pos>624</set_pos>
      <state shape='(624)'>
       [ 31415, 3504167220, 2157158837, 1540013110, 255242423, 
         1311156024, 592214659, 2018603190, 1450469179, 2982200299, 
         4047764471, 1700002639, 2998985682, 3132371229, 2201614409, 
         969676966, 3141570446, 1780387405, 742969358, 141792153, 
         3301252209, 4246420239, 464238546, 1859971057, 2362896840, 
         1824030411, 1344937932, 2252226812, 910791250, 1653775479, 
         1758257324, 499923296, 501678848, 2176790305, 2392609777, 
         3158256130, 946180644, 3393449049, 2495506856, 827435577, 
         3705645477, 2173813927, 490857027, 1089019802, 2669701971, 
         1013952546, 3326128024, 112999254, 1264480030, 1670540908, 
         2799232563, 3726248584, 2109180939, 3751909927, 490411114, 
         1830930441, 4204278624, 2101428552, 3954037511, 1990026447, 
         2964128642, 1671553469, 1825549162, 3835159670, 342015849, 
         1799599534, 1505383757, 2201834303, 2607316053, 1428463000, 
         184028835, 1042809238, 1102833270, 4273511484, 606886949, 
         601040868, 1776533824, 1577977842, 1500458541, 2613494699, 
         2042602237, 1538795965, 841094014, 3025280777, 2488279723, 
         2764643842, 1986451030, 1336418218, 1744044495, 2363356319, 
         1204062027, 1744173709, 2431960472, 2374459423, 631468239, 
         3129166090, 924391560, 918517257, 368272111, 1904275374, 
         703346543, 1273316912, 995879611, 3942559534, 3363123753, 
         3845866747, 2870144578, 599277483, 2473632227, 3409463090, 
         3919859651, 1254176559, 3473171350, 2602108730, 1749340554, 
         1444351818, 1565862923, 3547445863, 2438598122, 3411059967, 
         838857700, 2394701165, 2402133061, 1541197694, 2845955223, 
         867146822, 752098844, 3599818123, 2624401192, 662115859, 
         3947946241, 509663309, 907119589, 671923934, 2134776860, 
         1901567224, 4049678277, 340971431, 2002603117, 2896753447, 
         3402218277, 482880651, 1453127269, 411351555, 234749631, 
         4257396972, 894688733, 953994692, 3918992104, 2854697548, 
         2681192284, 502386349, 3669762009, 3493477275, 302373778, 
         3620651829, 3917802218, 4219887498, 2380464811, 3583737420, 
         1159339211, 1044084307, 2685213281, 2768200882, 3329550868, 
         4161252024, 2223075181, 1807507058, 1761726215, 2527781895, 
         1033216931, 2651900666, 2248592516, 2748082059, 2748066491, 
         427351212, 1400577164, 364165458, 4038590476, 3305704862, 
         807822501, 3884253902, 362074263, 2407013194, 4294200352, 
         2434123144, 2199112236, 1027826401, 3685182593, 296575495, 
         1695444097, 2386644799, 4191611089, 2317368731, 4208865055, 
         4204958415, 4131854144, 475269428, 1451259466, 3221868382, 
         3949106553, 775504875, 3781005185, 3225694485, 4173735034, 
         989865354, 2582358592, 1474658009, 374645768, 4150591481, 
         531351668, 3627559575, 4143841592, 1299976220, 2740773191, 
         1830145552, 2203608717, 1118568004, 1758543635, 2798421237, 
         412722511, 3342761992, 846948405, 719813320, 2306898376, 
         2372085651, 423769623, 2494736118, 3330306856, 1484551132, 
         3928357911, 158279883, 4147952639, 2138310485, 67033358, 
         3440779633, 3284088038, 2617338950, 4116454338, 1182285076, 
         2914211641, 3356294712, 3100303673, 2268098618, 4088545036, 
         2524637408, 3679245344, 868969926, 3580577302, 1650910274, 
         1687480937, 2836014083, 2253110881, 2105153804, 65984543, 
         1539103802, 754677575, 2298220292, 3768984672, 1304057618, 
         3366094467, 3482947973, 2569085156, 318181829, 1281323201, 
         1245592777, 2727150578, 4098752187, 3072194468, 367299467, 
         1722118629, 1450505219, 919033818, 2845791251, 2823832775, 
         1507561420, 1580167669, 2589952601, 892946941, 1780324072, 
         533609477, 2862570514, 3717456746, 334162568, 1558794436, 
         3584642006, 3560106279, 2262188115, 3374955029, 279327183, 
         853700301, 3292294404, 2975908839, 3141916542, 2000904466, 
         3356326054, 191096641, 3019048654, 1293474726, 770443534, 
         2522485170, 1087384477, 4206604730, 1178083372, 2593638385, 
         864546576, 1560339074, 2686876130, 2609313428, 2622460003, 
         508485755, 849175742, 473198126, 2598901599, 832372203, 
         2889871858, 188998892, 2579471961, 3973393957, 3503787069, 
         3167323062, 3706211141, 249047520, 785475235, 452967059, 
         2680309828, 2185100004, 1912804357, 3708357340, 1803264580, 
         494990211, 2462461690, 3759882532, 1018139824, 950524606, 
         1367014469, 2355227684, 1192002127, 835528728, 2836245195, 
         2051601313, 1921564533, 2324995610, 2816817359, 4067434297, 
         4186463547, 2570567794, 3423264139, 3213832196, 207301051, 
         2976484133, 3157051074, 2739350304, 118962123, 1670489977, 
         1868450747, 4040190918, 2588537630, 3893028722, 1648347644, 
         674109241, 858500070, 1250093352, 546041752, 1737875556, 
         3522860614, 707475367, 3177600338, 2453109248, 2386310715, 
         3730106095, 126314639, 2672412895, 245728678, 190681588, 
         2092051131, 775841498, 1805598587, 3810678428, 1866482998, 
         1642512175, 3197832355, 1901405699, 704451145, 1268795725, 
         2928318589, 3351454365, 3621074905, 3237524614, 1180526334, 
         603003681, 3750452876, 2977945331, 4262315934, 1284360059, 
         392877, 711135437, 2930661230, 730155818, 1190535969, 
         768081200, 1119196545, 2502262034, 321382627, 211115555, 
         1027858532, 3516468490, 3231381284, 561537787, 978608544, 
         1458120122, 4215928674, 1765311457, 3707693309, 573823956, 
         2984652867, 493540421, 2963385818, 381300698, 3792080037, 
         2388940066, 3003365189, 2491240361, 4139774750, 4104155417, 
         1871284971, 553716220, 698666519, 4142964671, 3767444185, 
         1499655088, 1375713156, 1404868137, 4040861561, 372924116, 
         160620375, 802729479, 2345625976, 2191321304, 3598354873, 
         1847779866, 2977999200, 3692447588, 684805214, 3674435794, 
         2171755826, 307066286, 1280019813, 2520075828, 3042755343, 
         55962339, 2077108306, 1244616067, 3355267087, 3072000642, 
         3279846983, 4132845212, 3851920772, 924487437, 1499686636, 
         1120367181, 1156498889, 3263435190, 1132976952, 1668939853, 
         2606681037, 3995152765, 956757641, 3278739169, 942242559, 
         1277755249, 955234567, 3284779163, 2597475793, 28231961, 
         1061337528, 1589559156, 233449478, 1828127292, 4182870256, 
         1109005503, 3264601815, 2167168902, 37442807, 681686615, 
         1120043320, 41123427, 4276673014, 2150964369, 3443782376, 
         557554593, 808751472, 1621250844, 2152747358, 2763937594, 
         3729613575, 2208380548, 980564687, 540212381, 563654884, 
         4263759848, 1104333996, 1550735159, 2930659397, 1504488699, 
         4236774043, 3649013746, 1923587344, 1722159793, 576033133, 
         1284552447, 3489145397, 2393794382, 2200596221, 303907741, 
         3825578996, 592458103, 1734161656, 669919555, 2581603446, 
         2552002508, 1845134415, 4207276752, 2261826122, 1543637108, 
         4203148598, 552279287, 3456343682, 4173829109, 3366324255, 
         211562782, 2411360489, 3043578315, 4157658978, 1481565275, 
         1170883481, 3223389456, 2688757144, 1696491996, 1286736716, 
         1432726653, 567241481, 274468267, 995027350, 1279094862, 
         1535154252, 2438483331, 601333512, 1097140300, 2489875846, 
         2533436218, 35587903, 936875267, 3185665880, 1437790892, 
         842225004, 753631688, 2916498965, 2741096513, 3286239134, 
         2629896225, 578286336, 1868423474, 3656590930, 1420196137, 
         2895918845, 3356044241, 2664410641, 2459753143, 534784162, 
         4254907428, 2291670174, 3818309576, 2515892308, 429425196, 
         3590908315, 3115221816, 3031028259, 3545928263, 2329811735, 
         1068625549, 1538757862, 4100874345, 3691693593, 4143584394, 
         2707844438, 3946256494, 4022991436, 3721202295, 1974023697, 
         874571422, 582454437, 1630653545, 1977700185, 1623353354, 
         2997744042, 277561756, 2823905505, 1596569317, 244395595, 
         1494903023, 2417280575, 502521195, 2225184914, 4137773868, 
         1918137064, 3173976395, 3699752236, 2471152875, 176851790, 
         72857128, 2184071211, 1711238033, 2672132661, 3432829209, 
         1434151849, 2548458416, 186489251, 828037817, 519327336, 
         4180711796, 3096329568, 4104498200, 1194613782 ]
      </state>
      <seed>31415</seed>
   </prng>
   <ffsocket mode='unix' name='lammps'>
      <address>replay</address>
   </ffsocket>
   <system>
      <cell shape='(3, 3)'>
       [   3.52330000e+01,   2.15739903e-15,   2.15739903e-15,   0.00000000e+00,   3.52330000e+01, 
           2.15739903e-15,   0.00000000e+00,   0.00000000e+00,   3.52330000e+01 ]
      </cell>
      <motion mode='replay'>
         <file mode='xyz'>conversion.xyz</file>
      </motion>
      <beads natoms='648' nbeads='1'>
         <q shape='(1, 1944)'>
          [   3.84600000e+00,   5.67200000e+00,   1.32300000e+00,   2.97900000e+00,   7.05400000e+00, 
              8.57000000e-01,   5.52500000e+00,   5.69700000e+00,   4.51000000e-01,   3.45570000e+01, 
              3.43410000e+01,   3.07800000e+00,   3.37220000e+01,   3.46890000e+01,   4.84000000e+00, 
              3.60290000e+01,   3.32200000e+01,   3.71100000e+00,   5.59100000e+00,   1.96300000e+00, 
              1.34770000e+01,   7.26500000e+00,   1.86400000e+00,   1.38510000e+01,   5.00900000e+00, 
              3.55500000e+00,   1.39160000e+01,   1.06000000e+00,   2.06100000e+00,   2.17180000e+01, 
              7.57000000e-01,   2.61000000e-01,   2.18200000e+01,   2.13000000e-01,   3.01300000e+00, 
              2.30470000e+01,   1.20000000e+00,   1.33700000e+00,   2.90060000e+01,   8.18000000e-01, 
              1.88400000e+00,   3.07320000e+01,   2.88300000e+00,   1.82500000e+00,   2.90110000e+01, 
              1.33100000e+00,   1.38600000e+00,   3.43060000e+01,   2.39200000e+00,   2.89800000e+00, 
              3.48460000e+01,   8.14000000e-01,   5.32000000e-01,   3.58360000e+01,   3.14510000e+01, 
              1.02010000e+01,   7.26000000e-01,   3.22820000e+01,   1.08770000e+01,  -7.50000000e-01, 
              3.09200000e+01,   1.15940000e+01,   1.67700000e+00,   8.36000000e-01,   1.08080000e+01, 
              4.29800000e+00,   3.05000000e-01,   1.06430000e+01,   2.79300000e+00,  -3.56000000e-01, 
              1.03340000e+01,   5.52400000e+00,   3.43810000e+01,   5.97900000e+00,   9.19400000e+00, 
              3.36160000e+01,   7.67300000e+00,   8.85700000e+00,   3.51150000e+01,   5.26000000e+00, 
              7.61800000e+00,   3.32120000e+01,   6.48000000e+00,   2.42780000e+01,   3.16240000e+01, 
              6.90800000e+00,   2.35210000e+01,   3.25440000e+01,   4.99000000e+00,   2.49820000e+01, 
              1.99200000e+00,   9.00200000e+00,   2.68630000e+01,   1.85600000e+00,   1.01750000e+01, 
              2.55790000e+01,   5.19000000e-01,   8.09900000e+00,   2.63860000e+01,   2.05400000e+00, 
              8.66000000e+00,   3.25150000e+01,   2.16700000e+00,   8.72700000e+00,   3.04940000e+01, 
              2.37400000e+00,   1.05130000e+01,   3.30380000e+01,   3.40200000e+00,   1.66390000e+01, 
              3.00800000e+00,   4.12700000e+00,   1.58720000e+01,   4.44600000e+00,   2.90500000e+00, 
              1.83390000e+01,   3.16000000e+00,   4.22200000e+00,   1.54440000e+01,   8.07200000e+00, 
              5.21100000e+00,   1.67560000e+01,   8.29900000e+00,   2.56000000e+00,   1.54920000e+01, 
              8.86000000e+00,   2.83100000e+00,   9.24600000e+00,   1.64880000e+01,   2.86900000e+00, 
              8.02300000e+00,   1.80500000e+01,   3.96000000e+00,   8.46700000e+00,   1.51540000e+01, 
              5.56300000e+00,   6.00300000e+00,   2.09070000e+01,   4.65300000e+00,   4.63800000e+00, 
              2.14800000e+01,   6.40500000e+00,   6.20800000e+00,   2.25290000e+01,   2.08700000e+00, 
              1.33700000e+01,   2.29130000e+01,   2.83200000e+00,   1.48040000e+01,   2.34220000e+01, 
              1.43400000e+00,   1.35090000e+01,   2.11960000e+01,   3.36900000e+00,   1.78860000e+01, 
              2.51090000e+01,   3.65500000e+00,   1.72000000e+01,   2.67660000e+01,   4.77200000e+00, 
              1.89770000e+01,   2.45000000e+01,   3.47640000e+01,   2.08030000e+01,   9.48000000e-01, 
              3.52100000e+01,   2.12670000e+01,   2.81600000e+00,   3.59620000e+01,   2.17260000e+01, 
              1.31000000e-01,   2.83600000e+00,   2.41780000e+01,   1.52290000e+01,   2.79500000e+00, 
              2.23460000e+01,   1.48760000e+01,   2.41400000e+00,   2.41150000e+01,   1.71300000e+01, 
              3.30000000e+01,   2.44810000e+01,   1.52300000e+01,   3.46400000e+01,   2.48040000e+01, 
              1.50130000e+01,   3.24010000e+01,   2.57640000e+01,   1.42950000e+01,   4.04000000e-01, 
              2.67790000e+01,   2.34000000e+01,   1.35300000e+00,   2.72480000e+01,   2.49870000e+01, 
              1.54600000e+00,   2.80500000e+01,   2.23170000e+01,   3.42220000e+01,   2.13800000e+01, 
              2.54180000e+01,   3.56690000e+01,   2.01510000e+01,   2.53170000e+01,   3.29600000e+01, 
              2.11800000e+01,   2.39920000e+01,   3.32590000e+01,   1.74380000e+01,   3.24800000e+01, 
              3.33140000e+01,   1.87820000e+01,   3.38830000e+01,   3.27430000e+01,   1.81810000e+01, 
              3.08710000e+01,   4.46300000e+00,   2.19790000e+01,   3.93600000e+00,   5.85600000e+00, 
              2.30840000e+01,   3.40000000e+00,   3.98600000e+00,   2.21800000e+01,   5.60200000e+00, 
              6.25800000e+00,   2.58510000e+01,   8.52000000e+00,   5.76700000e+00,   2.76930000e+01, 
              8.47600000e+00,   7.20200000e+00,   2.55060000e+01,   1.01860000e+01,   6.01000000e-01, 
              2.97370000e+01,   1.27470000e+01,  -6.85000000e-01,   3.08420000e+01,   1.23500000e+01, 
              1.33600000e+00,   3.07160000e+01,   1.40310000e+01,   7.56300000e+00,   2.81910000e+01, 
              2.43330000e+01,   9.20100000e+00,   2.88280000e+01,   2.46840000e+01,   7.38100000e+00, 
              2.76210000e+01,   2.27990000e+01,   3.65300000e+00,   2.71090000e+01,   2.77720000e+01, 
              5.12600000e+00,   2.70150000e+01,   2.67720000e+01,   3.03100000e+00,   2.87560000e+01, 
              2.76980000e+01,   2.59600000e+00,   2.39910000e+01,   3.24760000e+01,   2.87900000e+00, 
              2.47910000e+01,   3.08590000e+01,   4.00300000e+00,   2.29130000e+01,   3.27010000e+01, 
              3.08300000e+00,   3.13170000e+01,   3.64400000e+00,   4.13300000e+00,   3.05890000e+01, 
              2.53900000e+00,   4.21800000e+00,   3.21730000e+01,   5.03700000e+00,   4.66100000e+00, 
              3.05550000e+01,   9.36800000e+00,   3.18400000e+00,   2.98430000e+01,   1.01320000e+01, 
              4.35800000e+00,   3.24480000e+01,   9.12600000e+00,   3.46500000e+00,   3.25370000e+01, 
              1.57780000e+01,   5.07200000e+00,   3.18190000e+01,   1.59030000e+01,   4.05500000e+00, 
              3.42570000e+01,   1.52840000e+01,   4.21500000e+00,   2.91530000e+01,   2.03170000e+01, 
              3.65800000e+00,   3.01760000e+01,   1.88420000e+01,   4.95900000e+00,   3.02910000e+01, 
              2.14490000e+01,   1.12600000e+00,   3.13330000e+01,   2.87680000e+01,   2.39500000e+00, 
              3.11240000e+01,   2.99250000e+01,   7.68000000e-01,   3.30920000e+01,   2.88980000e+01, 
              4.88100000e+00,   3.26160000e+01,   3.23020000e+01,   6.58800000e+00,   3.29110000e+01, 
              3.17250000e+01,   4.48600000e+00,   3.40370000e+01,   3.32490000e+01,   8.96200000e+00, 
              5.55600000e+00,   1.51000000e-01,   9.65200000e+00,   6.99100000e+00,   8.59000000e-01, 
              9.17300000e+00,   4.47700000e+00,   1.64500000e+00,   1.83300000e+00,   3.51800000e+00, 
              5.67900000e+00,   2.88900000e+00,   2.73100000e+00,   6.78800000e+00,   2.78900000e+00, 
              4.18700000e+00,   4.14700000e+00,   1.05100000e+01,   3.47260000e+01,   1.30730000e+01, 
              1.19200000e+01,   3.41180000e+01,   1.19190000e+01,   1.12950000e+01,   3.49680000e+01, 
              1.47410000e+01,   7.21200000e+00,   4.20000000e-02,   2.24540000e+01,   6.92400000e+00, 
              4.70000000e-01,   2.41720000e+01,   8.31900000e+00,   1.22800000e+00,   2.16530000e+01, 
              6.36500000e+00,   2.01000000e+00,   2.75440000e+01,   5.95400000e+00,   3.58500000e+00, 
              2.68520000e+01,   7.75800000e+00,   2.54900000e+00,   2.86960000e+01,   1.08330000e+01, 
              3.14000000e+00,   3.07870000e+01,   1.26970000e+01,   2.97500000e+00,   3.08670000e+01, 
              1.03890000e+01,   3.70000000e+00,   3.24040000e+01,   8.68400000e+00,   9.34200000e+00, 
              3.91200000e+00,   6.98500000e+00,   9.25600000e+00,   4.77300000e+00,   8.68400000e+00, 
              1.08090000e+01,   3.01100000e+00,   4.87300000e+00,   9.91900000e+00,   7.70700000e+00, 
              3.69800000e+00,   9.77100000e+00,   6.19400000e+00,   5.04700000e+00,   1.19610000e+01, 
              7.62400000e+00,   1.00310000e+01,   5.01800000e+00,   9.69900000e+00,   9.67500000e+00, 
              3.38200000e+00,   1.03400000e+01,   9.13200000e+00,   5.98700000e+00,   1.08250000e+01, 
              1.12460000e+01,   3.91800000e+00,   2.19290000e+01,   1.26140000e+01,   2.77000000e+00, 
              2.23410000e+01,   1.20730000e+01,   5.68600000e+00,   2.14970000e+01,   6.82500000e+00, 
              7.16400000e+00,   2.57080000e+01,   8.03600000e+00,   8.37400000e+00,   2.59800000e+01, 
              5.20600000e+00,   7.90000000e+00,   2.58910000e+01,   1.01710000e+01,   1.28110000e+01, 
              2.95000000e-01,   1.00330000e+01,   1.28180000e+01,  -1.60900000e+00,   9.88000000e+00, 
              1.44920000e+01,   4.80000000e-01,   8.19000000e+00,   1.74020000e+01,   1.25300000e+00, 
              9.47200000e+00,   1.85310000e+01,   1.25300000e+00,   6.35100000e+00,   1.78170000e+01, 
              1.56800000e+00,   1.12330000e+01,   1.61880000e+01,   8.29900000e+00,   1.02910000e+01, 
              1.76890000e+01,   8.16600000e+00,   1.27680000e+01,   1.71230000e+01,   8.73300000e+00, 
              6.38600000e+00,   8.00200000e+00,   1.28460000e+01,   7.70100000e+00,   8.89600000e+00, 
              1.36550000e+01,   5.59100000e+00,   8.87700000e+00,   1.15190000e+01,   8.18400000e+00, 
              1.04190000e+01,   1.88480000e+01,   9.49800000e+00,   9.43400000e+00,   1.99050000e+01, 
              6.88200000e+00,   9.02700000e+00,   1.89480000e+01,   1.08060000e+01,   1.44310000e+01, 
              2.13280000e+01,   9.17700000e+00,   1.35310000e+01,   2.06700000e+01,   1.13440000e+01, 
              1.56960000e+01,   2.04480000e+01,   9.23700000e+00,   1.39280000e+01,   3.03410000e+01, 
              1.07790000e+01,   1.48390000e+01,   3.05220000e+01,   9.96500000e+00,   1.31920000e+01, 
              2.88990000e+01,   1.09180000e+01,   2.17070000e+01,   1.86400000e+00,   1.02800000e+01, 
              2.34490000e+01,   2.27900000e+00,   1.27080000e+01,   2.14560000e+01,   1.74900000e+00, 
              9.35300000e+00,   1.61250000e+01,   1.39270000e+01,   9.93800000e+00,   1.75940000e+01, 
              1.46180000e+01,   9.51800000e+00,   1.63600000e+01,   1.22440000e+01,   1.03710000e+01, 
              1.11070000e+01,   1.42680000e+01,   9.64400000e+00,   1.04060000e+01,   1.58590000e+01, 
              9.43400000e+00,   1.25230000e+01,   1.41170000e+01,   3.35100000e+00,   2.27690000e+01, 
              2.01960000e+01,   2.05500000e+00,   2.36860000e+01,   2.15030000e+01,   2.45200000e+00, 
              2.14010000e+01,   1.94130000e+01,   6.83600000e+00,   2.13290000e+01,   2.31990000e+01, 
              8.24900000e+00,   2.08480000e+01,   2.23200000e+01,   5.66800000e+00,   2.18410000e+01, 
              2.18860000e+01,   4.60400000e+00,   1.56490000e+01,   3.00430000e+01,   6.45300000e+00, 
              1.52170000e+01,   3.02070000e+01,   3.82200000e+00,   1.47620000e+01,   3.15620000e+01, 
              7.12500000e+00,   1.99760000e+01,   9.42100000e+00,   5.91800000e+00,   2.04530000e+01, 
              1.07300000e+01,   8.09900000e+00,   2.14960000e+01,   9.49100000e+00,   9.06300000e+00, 
              2.59120000e+01,   1.31860000e+01,   1.03500000e+01,   2.65720000e+01,   1.23670000e+01, 
              9.68000000e+00,   2.43670000e+01,   1.36970000e+01,   8.02200000e+00,   2.23430000e+01, 
              1.70420000e+01,   9.14400000e+00,   2.33670000e+01,   1.80740000e+01,   6.56200000e+00, 
              2.34620000e+01,   1.68520000e+01,   1.07620000e+01,   2.62850000e+01,   1.99630000e+01, 
              1.10360000e+01,   2.79660000e+01,   2.05380000e+01,   1.10780000e+01,   2.54010000e+01, 
              2.14560000e+01,   9.15800000e+00,   2.29020000e+01,   2.83910000e+01,   8.21900000e+00, 
              2.35280000e+01,   2.70850000e+01,   8.08900000e+00,   2.17600000e+01,   2.95090000e+01, 
              6.21900000e+00,   2.01580000e+01,   3.19210000e+01,   5.63500000e+00,   1.85110000e+01, 
              3.11610000e+01,   7.53000000e+00,   1.96240000e+01,   3.30710000e+01,   1.11910000e+01, 
              3.15090000e+01,   2.61700000e+00,   1.04600000e+01,   3.22140000e+01,   4.10800000e+00, 
              1.31760000e+01,   3.17510000e+01,   2.57700000e+00,   4.74800000e+00,   5.50000000e-02, 
              8.60500000e+00,   5.38000000e+00,   5.17000000e-01,   1.01830000e+01,   6.05000000e+00, 
             -3.06000000e-01,   7.48000000e+00,   8.69500000e+00,   3.08090000e+01,   1.57310000e+01, 
              9.18900000e+00,   3.21030000e+01,   1.44950000e+01,   8.44700000e+00,   2.90690000e+01, 
              1.48680000e+01,   1.01280000e+01,   3.14020000e+01,   2.07660000e+01,   9.45600000e+00, 
              3.09050000e+01,   1.91550000e+01,   9.02000000e+00,   3.27310000e+01,   2.14150000e+01, 
              1.22380000e+01,   3.01620000e+01,   2.58370000e+01,   1.14180000e+01,   3.09080000e+01, 
              2.71100000e+01,   1.23960000e+01,   3.13310000e+01,   2.46780000e+01,   1.03950000e+01, 
              3.25370000e+01,   3.06240000e+01,   1.10420000e+01,   3.43390000e+01,   3.07510000e+01, 
              1.13780000e+01,   3.14860000e+01,   3.15380000e+01,   1.04380000e+01,   3.62600000e+00, 
              5.08700000e+00,   1.24350000e+01,   4.08200000e+00,   5.13600000e+00,   9.82200000e+00, 
              4.28400000e+00,   6.68100000e+00,   1.47620000e+01,   3.40100000e+00,   1.37760000e+01, 
              1.65180000e+01,   3.82400000e+00,   1.33760000e+01,   1.37520000e+01,   4.75700000e+00, 
              1.29640000e+01,   1.23820000e+01,   1.01200000e+00,   1.76430000e+01,   1.33460000e+01, 
              1.99700000e+00,   1.64440000e+01,   1.19310000e+01,   2.13300000e+00,   1.89980000e+01, 
              1.52780000e+01,   1.29300000e+00,   2.45590000e+01,   1.60710000e+01,   9.46000000e-01, 
              2.63650000e+01,   1.57940000e+01,   1.99000000e-01,   2.34990000e+01,   2.22260000e+01, 
              3.16270000e+01,   2.47120000e+01,   2.33380000e+01,   3.25950000e+01,   2.38760000e+01, 
              2.21610000e+01,   3.00530000e+01,   2.41320000e+01,   1.56400000e+01,   1.84700000e+00, 
              3.27170000e+01,   1.74880000e+01,   2.47300000e+00,   3.18740000e+01,   1.64030000e+01, 
              8.69000000e-01,   3.42670000e+01,   1.48580000e+01,   1.01990000e+01,   2.75400000e+00, 
              1.33600000e+01,   1.07120000e+01,   2.28200000e+00,   1.45600000e+01,   9.31600000e+00, 
              4.55900000e+00,   1.57170000e+01,   8.46900000e+00,   1.07390000e+01,   1.73230000e+01, 
              9.58100000e+00,   1.08750000e+01,   1.45740000e+01,   9.63100000e+00,   1.02210000e+01, 
              1.52480000e+01,   1.03980000e+01,   1.65250000e+01,   1.63240000e+01,   9.18100000e+00, 
              1.61490000e+01,   1.41720000e+01,   1.04880000e+01,   1.50980000e+01,   1.32260000e+01, 
              8.43800000e+00,   2.08010000e+01,   1.40430000e+01,   8.99600000e+00,   1.92950000e+01, 
              1.46610000e+01,   7.80200000e+00,   2.20930000e+01,   1.01730000e+01,   1.09610000e+01, 
              2.58750000e+01,   1.14770000e+01,   1.02230000e+01,   2.69400000e+01,   1.12690000e+01, 
              1.07380000e+01,   2.43430000e+01,   1.27920000e+01,   7.73700000e+00,   2.91730000e+01, 
              1.21990000e+01,   6.03800000e+00,   2.94750000e+01,   1.44270000e+01,   7.45000000e+00, 
              2.96170000e+01,   1.51800000e+01,   1.94980000e+01,   3.57800000e+00,   1.48830000e+01, 
              1.75960000e+01,   4.08000000e+00,   1.67540000e+01,   1.95790000e+01,   2.62600000e+00, 
              1.25170000e+01,   1.10930000e+01,   7.70100000e+00,   1.22240000e+01,   1.27780000e+01, 
              7.55500000e+00,   1.11500000e+01,   1.03930000e+01,   7.05700000e+00,   1.62660000e+01, 
              1.62710000e+01,   1.07580000e+01,   1.65070000e+01,   1.57950000e+01,   1.27680000e+01, 
              1.77250000e+01,   1.69770000e+01,   1.02920000e+01,   1.40690000e+01,   1.83990000e+01, 
              1.88970000e+01,   1.55130000e+01,   1.75230000e+01,   1.81550000e+01,   1.49580000e+01, 
              1.87090000e+01,   2.06730000e+01,   1.40990000e+01,   1.54800000e+01,   2.55100000e+01, 
              1.36980000e+01,   1.68720000e+01,   2.69380000e+01,   1.25670000e+01,   1.53790000e+01, 
              2.44440000e+01,   1.33090000e+01,   1.75740000e+01,   3.02920000e+01,   1.49370000e+01, 
              1.69340000e+01,   3.08100000e+01,   1.39690000e+01,   1.94940000e+01,   3.00120000e+01, 
              1.83710000e+01,   2.32570000e+01,   9.25000000e-01,   1.94790000e+01,   2.34800000e+01, 
              2.32100000e+00,   1.90870000e+01,   2.43250000e+01,  -3.69000000e-01,   1.21000000e+01, 
              2.17300000e+01,   1.13550000e+01,   1.31410000e+01,   2.22870000e+01,   1.27430000e+01, 
              1.34670000e+01,   2.22360000e+01,   1.02440000e+01,   1.21630000e+01,   2.32900000e+01, 
              2.35970000e+01,   1.13240000e+01,   2.27360000e+01,   2.49490000e+01,   1.38820000e+01, 
              2.28720000e+01,   2.38400000e+01,   2.01730000e+01,   2.67610000e+01,   2.26280000e+01, 
              2.02060000e+01,   2.65320000e+01,   2.07920000e+01,   2.15560000e+01,   2.57420000e+01, 
              2.33890000e+01,   1.67010000e+01,   2.11650000e+01,   2.26050000e+01,   1.80280000e+01, 
              2.06860000e+01,   2.38480000e+01,   1.71040000e+01,   2.28660000e+01,   2.19490000e+01, 
              1.13910000e+01,   2.64610000e+01,   3.37050000e+01,   9.84100000e+00,   2.71920000e+01, 
              3.40480000e+01,   1.17760000e+01,   2.55400000e+01,   3.52430000e+01,   9.89800000e+00, 
              2.59890000e+01,   4.55300000e+00,   8.90200000e+00,   2.61310000e+01,   6.03900000e+00, 
              1.02870000e+01,   2.78060000e+01,   4.37600000e+00,   1.43080000e+01,   2.69600000e+01, 
              1.08770000e+01,   1.53020000e+01,   2.74050000e+01,   1.21730000e+01,   1.54630000e+01, 
              2.61510000e+01,   9.63300000e+00,   1.34330000e+01,   2.29600000e+01,   1.69040000e+01, 
              1.34090000e+01,   2.41310000e+01,   1.81320000e+01,   1.36240000e+01,   2.11910000e+01, 
              1.75200000e+01,   1.64090000e+01,   2.67680000e+01,   2.68750000e+01,   1.75900000e+01, 
              2.69870000e+01,   2.54310000e+01,   1.47510000e+01,   2.77030000e+01,   2.62300000e+01, 
              1.44050000e+01,   2.27330000e+01,   2.98920000e+01,   1.54230000e+01,   2.30790000e+01, 
              2.84940000e+01,   1.28260000e+01,   2.32590000e+01,   2.94160000e+01,   6.90500000e+00, 
              2.94080000e+01,   7.49000000e-01,   8.42800000e+00,   3.04830000e+01,   1.56700000e+00, 
              6.35300000e+00,   3.08140000e+01,  -4.44000000e-01,   9.18900000e+00,   3.41590000e+01, 
              6.50900000e+00,   1.01980000e+01,   3.41930000e+01,   8.00200000e+00,   9.89000000e+00, 
              3.56920000e+01,   5.78500000e+00,   1.42560000e+01,   3.23160000e+01,   9.36900000e+00, 
              1.57330000e+01,   3.28670000e+01,   9.48600000e+00,   1.47540000e+01,   3.06700000e+01, 
              1.00900000e+01,   1.47140000e+01,   3.08410000e+01,   1.65160000e+01,   1.37480000e+01, 
              2.95510000e+01,   1.72790000e+01,   1.32180000e+01,   3.19330000e+01,   1.66140000e+01, 
              1.84090000e+01,   3.36410000e+01,   2.06110000e+01,   1.96010000e+01,   3.22740000e+01, 
              2.11150000e+01,   1.73600000e+01,   3.26550000e+01,   1.95180000e+01,   1.60620000e+01, 
              2.86380000e+01,   3.22070000e+01,   1.46480000e+01,   2.79580000e+01,   3.32530000e+01, 
              1.57520000e+01,   2.80140000e+01,   3.05220000e+01,   1.62000000e+01,   3.08950000e+01, 
              1.47300000e+00,   1.66260000e+01,   2.99680000e+01,  -1.30000000e-01,   1.71670000e+01, 
              2.98330000e+01,   2.92700000e+00,   2.02780000e+01,   3.52900000e+00,   6.04800000e+00, 
              2.09770000e+01,   3.61100000e+00,   4.57500000e+00,   2.13120000e+01,   4.51300000e+00, 
              7.25100000e+00,   2.30790000e+01,   5.77800000e+00,   1.04080000e+01,   2.46500000e+01, 
              6.25900000e+00,   1.08380000e+01,   2.23420000e+01,   7.60900000e+00,   1.01780000e+01, 
              1.95810000e+01,   2.03100000e+00,   1.21100000e+01,   1.90390000e+01,   1.08200000e+00, 