648
# CELL(abcABC):   35.23300    35.23300    35.23300    90.00000    90.00000    90.00000  Step:           0  Bead:       0 forces{atomic_unit}  cell{atomic_unit}
       O  5.29524e-02 -6.71694e-02  1.14753e-02
       H -2.66467e-02  5.21584e-02 -2.69941e-02
       H -2.27065e-02  7.88448e-03  1.65749e-02
       O -1.61405e-03 -1.22105e-02  9.70144e-02
       H  2.54887e-02 -8.79028e-04 -6.48800e-02
       H -2.68639e-02  1.89673e-02 -3.10768e-02
       O -3.99631e-02 -2.71456e-02 -1.52469e-02
       H  4.67736e-02 -1.31483e-03  1.26380e-02
       H -4.95731e-03  2.45558e-02  4.65914e-03
       O -4.03387e-03  2.06739e-02  1.67509e-03
       H -6.43950e-03  6.85076e-03  9.77476e-03
       H  1.00691e-02 -1.87192e-02 -1.02298e-02
       O -2.57416e-02  9.32810e-03  2.95114e-02
       H -3.78882e-03 -1.39963e-02 -1.29596e-02
       H  3.23176e-02 -1.56223e-03 -1.50065e-02
       O  3.19036e-02  3.95749e-02  2.49535e-03
       H -2.67455e-02 -3.11819e-02 -5.55433e-03
       H -3.28797e-03  2.61374e-03  2.20400e-03
       O  2.33431e-02 -8.94240e-03 -1.49344e-02
       H -4.45036e-03 -2.41078e-03  1.86498e-03
       H -7.63473e-03  1.84995e-02  7.88497e-03
       O  7.59746e-02  1.98551e-02  1.22809e-01
       H -5.72814e-02 -1.66129e-02 -1.23637e-01
       H -1.69213e-02 -6.94708e-03  2.96134e-04
       O -1.27844e-02  3.13130e-02 -1.47762e-02
       H  1.45878e-02 -3.76911e-02 -3.80255e-03
       H -6.44949e-03  1.02738e-02  1.72864e-02
       O -2.16826e-02  1.34284e-02 -1.51611e-02
       H  1.48791e-02  1.59581e-02 -4.94599e-03
       H  9.72703e-03 -2.17732e-02  2.32082e-02
       O -6.61104e-03 -1.87633e-02  1.97601e-02
       H  1.06533e-02  3.21767e-02 -2.06309e-02
       H -4.90073e-03 -1.36696e-02 -1.36417e-04
       O  7.73696e-03  4.48518e-02 -7.00462e-02
       H  5.13659e-03 -3.39771e-03  7.06471e-02
       H -1.20576e-02 -4.25222e-02 -9.85782e-03
       O -1.88076e-02 -2.18217e-02 -4.05112e-02
       H  5.31763e-03  7.72579e-03  2.30358e-02
       H  7.83390e-03  1.66085e-02  1.27298e-02
       O -5.89976e-02 -1.01044e-01 -3.52908e-02
       H  4.75652e-02  8.36483e-02  2.77984e-02
       H  1.69328e-02  1.15047e-02  9.96893e-03
       O  2.53417e-02 -6.03520e-02  2.77529e-02
       H -1.58647e-03  4.15865e-02 -5.54494e-02
       H -1.91900e-02  1.99420e-02  2.71209e-02
       O  1.56279e-02  1.53158e-02  8.49694e-03
       H -2.45009e-02 -3.00147e-02 -6.61407e-03
       H  3.99666e-03  1.50803e-02 -1.14093e-02
       O -4.14462e-02 -7.80679e-02 -2.13590e-02
       H  3.06163e-02  6.73581e-02  1.41197e-02
       H  7.99005e-03  6.40050e-03  8.06649e-03
       O -6.39640e-04  1.28080e-02 -9.88842e-03
       H  1.14553e-02  3.81381e-03  3.10140e-04
       H -1.30455e-02 -1.28121e-02  1.49992e-02
       O -1.29526e-02 -1.52317e-03  9.64571e-02
       H -2.23848e-02 -1.77266e-02 -6.59241e-02
       H  3.38234e-02  2.40765e-02 -3.25583e-02
       O -1.75784e-02 -2.38777e-02  6.04514e-02
       H  1.00292e-02  1.99194e-02 -6.11054e-03
       H  2.14437e-02  7.26978e-03 -4.39903e-02
       O -4.79036e-02 -4.38519e-02  3.52229e-02
       H  7.86435e-02  1.63758e-03 -4.55882e-03
       H -3.51625e-02  4.61279e-02 -3.51407e-02
       O  7.29822e-02  7.26190e-02 -8.58863e-03
       H -2.89272e-02 -2.86342e-02 -2.27761e-02
       H -4.06085e-02 -4.90712e-02  2.33967e-02
       O -5.43263e-03 -3.64698e-02 -9.03572e-03
       H -2.54308e-02  2.04039e-02 -7.82938e-03
       H  3.49744e-02 -8.73196e-04  1.15840e-02
       O -1.04708e-02  2.43776e-02  2.32577e-02
       H  5.17747e-03 -2.85634e-02 -3.63258e-02
       H  7.13315e-03 -2.69195e-03  1.36895e-02
       O  7.79861e-03  1.52585e-03 -4.69013e-02
       H -2.06480e-02 -1.50035e-02  2.03384e-02
       H  9.79866e-03  1.32366e-02  2.90179e-02
       O  2.72598e-02  1.41342e-02  3.27047e-02
       H  1.03923e-02 -2.29826e-02  8.57128e-03
       H -1.99034e-02  1.73362e-02 -3.56760e-02
       O  7.71424e-03 -3.18635e-02 -9.09628e-03
       H -3.19701e-02  1.61440e-02 -1.16817e-02
       H  2.11665e-02  7.83197e-03  1.49323e-02
       O -1.23512e-02  2.51476e-02  1.13142e-01
       H  9.90517e-03  1.14921e-03 -7.72673e-03
       H -8.06057e-05 -3.35305e-02 -9.82674e-02
       O -5.79772e-03 -3.87869e-02  7.15251e-03
       H  1.24102e-02  8.01101e-03 -9.32143e-03
       H -7.21449e-03  2.63431e-02  9.79152e-04
       O -1.75137e-02  1.43531e-02 -6.20025e-03
       H  1.81496e-03 -3.15889e-03  8.24402e-03
       H  1.00679e-02 -9.57404e-03 -4.43032e-03
       O -5.10254e-03  6.05898e-02  1.05405e-01
       H  5.24807e-02 -3.60021e-02 -4.88215e-02
       H -3.96851e-02 -3.56693e-02 -4.86732e-02
       O -5.10170e-04  1.41113e-02 -1.23690e-02
       H -6.67653e-03  1.09809e-02  7.64720e-03
       H  5.94950e-03 -3.39607e-02  1.12468e-02
       O  9.46165e-03  4.73161e-02 -2.77786e-04
       H  2.07425e-02 -1.77450e-02 -7.56943e-04
       H -2.23938e-02 -2.66276e-02  5.80218e-03
       O -2.65877e-02  9.99139e-03 -3.79783e-02
       H  9.33783e-03 -1.58390e-02  2.82888e-02
       H  7.72632e-03  1.13062e-02  9.80014e-03
       O -4.15562e-02  4.32867e-04 -2.61479e-02
       H  3.59582e-02  1.13008e-03  3.54906e-02
       H  7.29052e-03  8.82015e-03 -3.93545e-03
       O  2.64082e-02 -1.77152e-02 -5.02881e-03
       H -6.29896e-03 -4.50877e-03 -5.25766e-03
       H -1.51274e-02  2.16651e-02  1.07062e-02
       O -4.74258e-03 -4.97840e-02  5.08035e-03
       H  6.38999e-03  3.42463e-02  9.70849e-03
       H -2.09933e-03  9.94735e-03 -1.47998e-02
       O -1.41272e-02  3.78664e-02 -6.44774e-02
       H  3.48132e-02 -2.23627e-02  2.72902e-02
       H -1.84329e-02 -1.39664e-02  3.64019e-02
       O  3.65594e-02 -1.75535e-02 -2.04593e-02
       H -2.90502e-02  1.35932e-02  2.79565e-02
       H -6.05207e-03  7.92773e-03 -1.30926e-02
       O -5.07245e-04 -1.41868e-02 -1.68743e-02
       H  3.90683e-03  8.79997e-03  7.84001e-03
       H -2.65093e-03  8.25602e-03  1.29693e-02
       O  2.93327e-02  2.67908e-03  3.22695e-02
       H -1.77670e-03  1.77739e-02 -1.13650e-02
       H -2.15960e-02 -1.62739e-02 -2.10054e-02
       O  3.41366e-02 -1.34540e-02 -2.62537e-02
       H -2.50394e-02 -5.56704e-03  8.66162e-03
       H -8.63868e-03  1.25528e-02  2.25794e-02
       O -3.90226e-02 -4.15680e-02  4.91213e-02
       H  4.31574e-02  1.94994e-03 -1.21190e-02
       H  2.60429e-03  4.22600e-02 -3.05606e-02
       O -2.20078e-02  8.36484e-02 -5.43535e-02
       H  1.85604e-02 -3.77400e-03  4.11126e-02
       H -3.19092e-03 -7.40037e-02  1.65443e-02
       O  8.85752e-03 -2.64218e-02  6.35221e-03
       H  5.78878e-03 -8.80504e-04 -2.75335e-03
       H -2.09008e-02  3.14543e-02  1.63161e-02
       O  3.12999e-02  3.08236e-02 -1.92109e-02
       H -7.10877e-03  1.27942e-02  7.94621e-03
       H -2.39064e-02 -4.76101e-02  1.00323e-02
       O -2.65584e-02 -5.96916e-02 -9.54339e-03
       H  2.93465e-02  4.09513e-02  6.41688e-03
       H -9.26004e-03  1.37475e-02  6.38595e-03
       O  1.42988e-02 -4.95656e-02 -6.44837e-02
       H -3.19125e-04 -1.12983e-02  4.18724e-02
       H -1.57067e-02  5.44007e-02  2.24107e-02
       O -7.07722e-02 -7.32088e-02 -1.52366e-02
       H  2.68903e-02  6.86567e-02  1.44458e-02
       H  4.72288e-02  7.60565e-03  1.25321e-03
       O  3.12627e-02  3.00950e-02  6.24287e-03
       H -2.31785e-02  1.93430e-04 -4.57004e-03
       H -1.19527e-02 -2.80639e-02  2.04571e-03
       O -1.44786e-02 -4.48173e-02  1.86287e-02
       H  1.11836e-02  2.36498e-02 -9.78108e-03
       H  2.86181e-03  1.76292e-02 -1.76318e-02
       O  9.61038e-03 -8.46842e-02  3.97712e-02
       H -2.56999e-02  4.15610e-02 -3.17714e-02
       H  1.85147e-02  3.98198e-02 -4.11724e-03
       O -7.86138e-02 -1.14469e-01  6.68487e-02
       H  5.40296e-02  3.27255e-02  7.82828e-03
       H  2.81505e-02  8.38398e-02 -7.66739e-02
       O  3.26206e-02  4.48803e-03  6.30373e-03
       H -4.59328e-03  2.15864e-02  1.62093e-02
       H -1.97852e-02 -2.17566e-02 -2.20266e-02
       O -3.44910e-02  2.49737e-02 -1.52376e-02
       H  2.87494e-02 -3.45920e-02  6.10616e-03
       H  2.03011e-03  9.64339e-03  1.23923e-02
       O -2.30468e-02 -2.90251e-02  3.81729e-02
       H  1.46377e-02  2.94702e-02  1.51775e-02
       H  6.59342e-03  6.22995e-03 -5.50632e-02
       O  1.12653e-02 -8.37959e-02  2.83369e-02
       H  1.76660e-02  2.00020e-02 -1.25502e-02
       H -2.19917e-02  6.10895e-02 -9.31223e-03
       O -6.40959e-02  4.97050e-02  3.61066e-02
       H  4.86447e-02 -3.45204e-02 -4.57506e-02
       H -4.59022e-03 -1.02689e-02  8.28586e-03
       O -1.05157e-02  1.23083e-04  2.89605e-02
       H  2.74611e-02 -9.46950e-03 -1.68143e-02
       H -7.80675e-03  4.34511e-03 -9.76569e-04
       O  4.19128e-03 -1.65614e-02  3.94503e-02
       H -2.42932e-02 -3.20337e-03 -8.44529e-03
       H  1.20261e-02  2.18995e-02 -3.46959e-02
       O -1.70940e-02  2.76467e-02  2.01251e-02
       H  8.25451e-03 -2.13095e-02 -1.21916e-02
       H  7.91838e-03 -1.41430e-02 -8.77965e-03
       O -8.40625e-02  9.90018e-03  2.39926e-02
       H  7.43263e-02  3.30404e-02 -4.69170e-02
       H  8.80952e-03 -3.54750e-02  1.54195e-02
       O -1.22705e-02  2.33350e-02  1.10945e-02
       H -5.85741e-03 -1.07361e-02 -1.21601e-02
       H  1.47404e-02 -1.73862e-02 -2.93930e-04
       O -3.15419e-04  2.68305e-02 -2.74310e-02
       H -7.90749e-03  6.97660e-03 -2.42415e-03
       H  4.92634e-03 -2.73642e-02  2.50955e-02
       O  1.33410e-02 -3.68328e-02  4.88489e-02
       H -3.12400e-02  8.62594e-03 -2.57782e-02
       H  1.78221e-02  2.79614e-02 -2.51272e-02
       O  5.76928e-03 -3.25070e-02 -7.85996e-03
       H  2.54079e-03  2.80909e-02  1.19971e-02
       H -8.05668e-03  4.93989e-03 -2.72243e-03
       O  4.68678e-02 -3.35796e-03 -1.23171e-02
       H  8.55171e-03  1.24476e-02  1.27661e-02
       H -6.00220e-02 -1.23039e-02  3.57308e-04
       O -5.48766e-02  9.94545e-03 -1.45014e-02
       H  1.05243e-02  1.01811e-02  2.58060e-02
       H  3.91155e-02 -1.72554e-03 -1.10055e-02
       O -7.78976e-03 -3.96446e-02 -2.04286e-02
       H -4.77693e-03 -1.27612e-02  2.48729e-03
       H  9.19455e-03  4.56578e-02  1.86596e-02
       O  5.08749e-03  4.87786e-03  2.60156e-03
       H -6.27529e-03  6.81059e-03 -2.77378e-03
       H  4.20341e-03 -7.61919e-03 -4.93616e-03
       O  2.97200e-02 -1.02785e-01  1.05430e-02
       H -3.48190e-02  3.34817e-02  5.94818e-02
       H  7.12909e-03  6.75340e-02 -6.76613e-02
       O -2.42630e-02  7.57529e-02 -3.20128e-02
       H -1.34882e-02 -4.48375e-02  6.34614e-04
       H  3.48604e-02 -2.88566e-02  3.25357e-02
       O  6.39137e-02  9.39220e-04 -2.09547e-02
       H -6.45306e-02 -1.10092e-02 -1.11392e-03
       H  5.93804e-03  6.88598e-03  7.87466e-05
       O -6.83157e-03  3.67545e-02 -1.39207e-02
       H -1.75857e-02 -1.18756e-02  7.23599e-04
       H  2.24135e-02 -2.37143e-02  1.04346e-02
       O -3.81563e-03 -5.70779e-03  1.83697e-03
       H  4.94861e-03  4.40351e-03  5.78819e-05
       H -3.20445e-04  1.54364e-03 -5.00876e-03
       O -2.31564e-02  9.18139e-02  1.52285e-01
       H -2.36496e-02  2.72240e-04 -6.74784e-02
       H  5.29957e-02 -9.71906e-02 -8.59712e-02
       O -6.49645e-02  4.13023e-02  8.04442e-02
       H  5.17701e-02  2.35498e-02 -3.93187e-02
       H  3.35459e-03 -6.81243e-02 -3.47482e-02
       O  1.33545e-01 -4.77405e-03  1.37093e-02
       H -9.47409e-02 -2.47909e-02  3.50037e-02
       H -3.96130e-02  3.22820e-02 -5.23972e-02
       O  7.42890e-02 -6.05314e-02  9.46661e-02
       H -9.10085e-02  3.26576e-02 -3.03502e-02
       H  1.06874e-02  3.00679e-02 -6.90532e-02
       O  8.47651e-02 -6.19808e-03  3.02984e-02
       H -3.80237e-02 -3.41830e-02 -4.97613e-03
       H -4.62087e-02  3.43086e-02 -2.25590e-02
       O -3.35136e-02  4.71662e-02  2.30555e-02
       H  5.11114e-02 -5.95915e-02 -2.08194e-02
       H -1.30904e-02  6.07568e-03 -4.84140e-03
       O  2.17107e-02 -2.68752e-02  5.06305e-02
       H  4.30385e-03  9.68047e-03 -6.68063e-03
       H -3.39819e-02  1.78417e-02 -3.95270e-02
       O  6.43711e-02 -1.71865e-02 -2.86819e-02
       H -2.08508e-02 -4.25308e-04  9.75108e-03
       H -3.84848e-02  1.73752e-02  2.16125e-02
       O -4.05496e-02 -1.58067e-02 -9.89387e-03
       H -1.77185e-02  1.48035e-02 -3.42326e-03
       H  5.36985e-02  8.68744e-03  9.82106e-03
       O  1.66574e-02 -6.42748e-02  1.67371e-02
       H  1.50540e-02  6.19714e-02 -1.73040e-02
       H -1.99952e-02 -4.83641e-04  6.67013e-03
       O  7.87544e-02 -1.91717e-02  2.97389e-02
       H -1.35671e-02  5.59246e-02  2.33593e-03
       H -7.38909e-02 -3.83036e-02 -3.39001e-02
       O -6.07760e-02 -5.14167e-02  9.06857e-02
       H -7.76946e-03  1.62259e-02 -7.36859e-02
       H  6.79812e-02  3.66008e-02 -1.54831e-02
       O  6.33640e-02 -8.63498e-03  6.16913e-02
       H -2.63703e-02  2.87247e-03 -6.77828e-03
       H -3.91691e-02  2.12260e-03 -5.72869e-02
       O -3.15819e-02  5.54725e-02  3.57251e-02
       H  1.15514e-02 -5.66552e-02 -4.51742e-02
       H  2.09888e-02 -4.73417e-03  1.13912e-02
       O  4.18691e-02  7.09342e-02 -2.40393e-02
       H -7.45914e-03 -5.28664e-03  1.14306e-02
       H -3.93353e-02 -5.76835e-02  1.62630e-02
       O  4.02321e-03  1.05086e-02 -8.56028e-03
       H  1.04992e-03 -2.88992e-04 -4.40637e-03
       H -2.90094e-03 -1.16488e-02  1.06730e-02
       O  5.11510e-02  1.81412e-02  3.40717e-03
       H -2.67126e-02 -1.17280e-02  5.99281e-03
       H -2.47544e-02 -6.58732e-03 -1.05254e-02
       O  2.49765e-02  2.82408e-02 -4.73403e-02
       H -3.60735e-02 -2.38118e-02  5.96505e-02
       H  7.38936e-03 -1.06848e-02 -1.18935e-03
       O -3.85701e-03 -1.87392e-02 -7.70691e-03
       H  7.90748e-03  5.60930e-03  2.64172e-02
       H -8.69147e-03  1.51355e-02 -1.65378e-02
       O  3.45228e-02  1.99013e-02  1.79441e-02
       H -2.12272e-02  1.08970e-02 -2.60233e-02
       H -1.21234e-03 -3.29114e-02  1.14296e-02
       O  3.09984e-02 -1.37376e-02  1.79820e-02
       H -2.76710e-02  1.25284e-02  4.73057e-03
       H -2.01771e-03  6.18146e-03 -2.11181e-02
       O  3.13943e-03  5.20276e-02  5.88251e-04
       H -6.68200e-03 -1.53025e-02  4.62370e-03
       H  1.97362e-03 -3.50906e-02 -8.79639e-03
       O -2.35332e-02 -7.59502e-03 -5.00309e-02
       H  4.06020e-02  1.29298e-02  4.58270e-02
       H -2.01796e-02  3.99857e-03  1.19396e-02
       O  2.07355e-02 -4.95385e-02 -6.82892e-02
       H -8.83141e-03  3.13447e-02  5.17141e-02
       H -5.22620e-03  1.91406e-02  8.98831e-03
       O -3.51381e-02  3.79441e-02 -5.64502e-02
       H -1.58894e-02 -4.25285e-03  2.70884e-02
       H  5.16835e-02 -2.83115e-02  2.67578e-02
       O  3.36352e-02 -3.04402e-02  1.52480e-02
       H  1.09309e-02  1.16046e-02 -9.19097e-03
       H -4.54609e-02  1.31009e-02 -4.02193e-03
       O  4.42826e-02  9.05770e-02 -1.23402e-03
       H -3.99585e-02 -4.88613e-02 -2.45775e-02
       H -2.57428e-04 -4.48996e-02  1.43434e-02
       O  1.49712e-02  7.00667e-03  6.51472e-03
       H -4.11705e-03 -1.49616e-02 -1.28728e-03
       H -8.63812e-03  4.38435e-03 -9.25409e-03
       O -1.30947e-01 -8.82327e-02  1.95683e-02
       H  1.49163e-01  7.46937e-02 -8.99510e-04
       H -2.74352e-02  1.43427e-02 -1.78198e-02
       O -5.52071e-02  1.60440e-02  1.54829e-02
       H  1.25457e-02 -1.68638e-02  4.86546e-04
       H  3.30342e-02  2.94823e-03 -6.33888e-03
       O  1.56671e-02 -4.50221e-02  8.00396e-03
       H -1.43122e-02  3.22282e-02 -4.43525e-03
       H -2.66339e-03  1.52457e-02 -4.88194e-04
       O -1.48410e-02 -1.29767e-02  5.11593e-03
       H  1.27270e-02  3.38486e-03 -2.28965e-02
       H  1.28502e-04 -6.51436e-04  6.47661e-03
       O  4.98053e-02 -5.32245e-02  3.85186e-02
       H -1.07501e-02  2.15900e-02  2.57080e-02
       H -3.44986e-02  3.97398e-02 -5.30686e-02
       O -4.72288e-02 -3.72329e-03  1.34598e-01
       H  5.78021e-02  1.10719e-02 -1.11768e-01
       H -1.33415e-02 -1.19022e-02 -2.00427e-02
       O -7.91765e-02  6.15309e-02 -2.41981e-02
       H  6.45783e-02  1.78938e-03  1.68970e-02
       H  1.24228e-02 -6.66230e-02  7.35224e-03
       O  3.16828e-03 -2.75633e-02 -4.16036e-02
       H  2.29026e-02  3.51123e-02  4.94026e-02
       H -1.93151e-02  1.83874e-03 -1.36285e-02
       O -2.64147e-02 -8.02647e-02 -6.18353e-02
       H -1.66614e-02  2.16560e-02  3.88568e-02
       H  4.88930e-02  5.65974e-02  1.81023e-02
       O -7.82125e-03 -1.13600e-02 -3.04502e-02
       H -7.46072e-03 -2.01395e-02 -8.46604e-03
       H  1.70422e-02  3.10927e-02  4.13721e-02
       O  6.63960e-02  8.16983e-03  3.91273e-02
       H -8.56228e-03 -1.08520e-02 -1.29605e-02
       H -4.08128e-02 -6.47260e-03 -3.37343e-02
       O -2.24912e-03 -7.73851e-02 -1.20118e-01
       H  9.50182e-04  1.00279e-02  1.04227e-02
       H  1.93457e-03  6.87796e-02  1.16816e-01
       O -1.17907e-02 -2.84643e-02  5.27770e-02
       H -1.85379e-03 -3.28563e-03 -6.12301e-02
       H  1.14512e-02  2.00852e-02  2.28392e-03
       O  8.74371e-03 -2.19840e-02  3.59302e-02
       H  1.91410e-02  1.65465e-02 -1.34361e-02
       H -1.85306e-02  1.22986e-02 -1.57412e-02
       O  1.92003e-02 -2.62731e-02 -2.75446e-02
       H -2.62934e-02  6.36738e-03  1.07071e-02
       H  5.71119e-03  2.03412e-02  1.42474e-02
       O -2.40476e-02  9.65681e-03  5.32294e-02
       H  2.13306e-02  4.05474e-03 -5.30880e-02
       H  1.69104e-03 -6.98252e-04  1.16990e-02
       O -9.61979e-03  5.14352e-02 -3.42377e-04
       H -3.24652e-02 -6.05731e-02  5.27055e-03
       H  3.71584e-02 -3.85364e-03 -5.26298e-03
       O  4.79767e-02  1.03444e-02  4.67071e-02
       H -1.40141e-02 -8.67012e-03 -4.02831e-02
       H -3.49571e-02  3.06084e-03 -5.72783e-03
       O -1.81335e-03  1.66771e-02  4.03448e-02
       H -4.68526e-04 -3.58995e-03  1.17627e-03
       H  7.18357e-03 -1.02841e-02 -4.27010e-02
       O -1.72464e-02  5.12513e-02 -2.69041e-02
       H -6.74440e-03 -4.92625e-02  1.50044e-02
       H  1.92236e-02  4.85736e-03  1.28578e-02
       O -3.15326e-04  1.68217e-02 -8.94690e-04
       H -2.80314e-03  6.15266e-03  3.10603e-03
       H  5.34113e-03 -2.94383e-02 -2.06258e-03
       O  1.51035e-02  3.05563e-02 -2.01816e-02
       H -2.34102e-02 -5.05227e-03  5.23305e-03
       H  6.87586e-04 -3.02071e-02  2.51157e-02
       O  3.57787e-02 -1.05129e-02 -6.43881e-02
       H -7.58514e-03  4.22883e-02  3.37018e-02
       H -1.72480e-02 -3.71947e-02  1.74915e-02
       O  1.58116e-02  2.19928e-02  2.71781e-02
       H -1.52526e-02 -1.35971e-02 -1.33473e-02
       H -4.44152e-03 -5.84949e-03 -3.54878e-03
       O  9.43637e-03 -5.00731e-02 -4.23196e-02
       H -3.68224e-04  3.75150e-02  2.92878e-02
       H -6.90919e-03  1.02598e-02  9.78146e-03
       O  2.37578e-02 -3.84723e-03 -6.41318e-02
       H  8.59202e-03 -1.04644e-02  8.78818e-03
       H -3.07871e-02  1.81553e-02  4.94940e-02
       O  3.53935e-02 -1.26531e-02 -5.19054e-03
       H -8.61638e-04  9.73371e-03 -2.05318e-03
       H -3.57738e-02  8.71789e-03  9.36942e-04
       O -3.07652e-02 -8.06280e-02  6.14327e-04
       H -1.73334e-02 -1.07147e-02  4.29048e-02
       H  4.50505e-02  8.63977e-02 -5.44899e-02
       O  2.13087e-02  4.68266e-02  4.75087e-02
       H -1.22658e-02 -1.34691e-02 -4.59984e-03
       H -1.60603e-02 -2.88696e-02 -2.38967e-02
       O  1.87105e-03  7.70499e-02  4.08886e-02
       H  2.87658e-02 -5.40904e-02  2.97510e-02
       H -2.27865e-02 -3.75850e-02 -7.51332e-02
       O  6.54787e-03 -8.51287e-02 -4.18557e-02
       H -2.16726e-02  5.47345e-02  1.66426e-02
       H  1.55340e-02  1.96565e-02  1.75981e-02
       O  2.22073e-02  1.84383e-02 -3.07451e-03
       H -3.35400e-02 -2.30686e-02 -8.74089e-04
       H  2.30498e-02  2.93480e-03  1.61770e-03
       O  4.63561e-02 -2.46319e-02  9.74729e-03
       H -1.26302e-03  4.94475e-03 -4.52729e-03
       H -4.27974e-02  1.68310e-02 -3.36351e-03
       O  2.91781e-02 -4.35319e-02  2.07350e-02
       H -3.85464e-02  3.03170e-02 -3.40582e-02
       H  4.76975e-03  8.97648e-03  1.34280e-02
       O -1.14354e-02  1.87144e-02  2.14416e-02
       H -5.61372e-03 -1.86560e-02 -1.51152e-02
       H  1.27529e-02 -1.78065e-03 -8.98832e-03
       O -1.59260e-03  7.86328e-02 -9.64749e-03
       H -2.08100e-02 -1.46382e-02  1.95117e-02
       H  1.17171e-02 -5.15481e-02 -1.27876e-02
       O -4.14070e-02 -2.65850e-02  5.60253e-03
       H  2.87436e-02  1.14416e-02  1.17777e-02
       H  1.65739e-02  1.08540e-02 -1.52864e-02
       O  1.49637e-02  5.12838e-02 -2.36721e-02
       H -2.19232e-02 -2.50766e-02 -1.20636e-02
       H  5.14043e-03 -3.54150e-02  3.45133e-02
       O  4.19884e-02  6.72482e-03  4.95739e-03
       H  6.79825e-03  8.82623e-03  7.87725e-03
       H -4.46324e-02 -4.24429e-03 -1.03810e-02
       O  3.58922e-02  5.28703e-02 -4.38745e-02
       H -2.39373e-02 -5.95212e-02  3.61374e-02
       H -9.45439e-03  1.00920e-02  7.94514e-03
       O -4.31925e-02 -2.81239e-02 -1.89037e-02
       H  1.83505e-03  6.85133e-03 -6.55776e-03
       H  3.88048e-02  1.34943e-02  1.69975e-02
       O  3.50310e-03  9.21689e-03  6.06369e-02
       H  1.20898e-02 -3.27732e-02 -4.96189e-02
       H -1.60570e-02  2.94204e-02 -1.15420e-02
       O -2.35277e-02 -1.80563e-02  5.41449e-03
       H  8.88031e-03  1.94014e-02  3.22573e-03
       H  1.08297e-02 -2.44134e-04 -4.48245e-03
       O  8.45167e-02 -1.10616e-02 -3.56558e-02
       H -6.23888e-02  2.18413e-02 -8.40510e-03
       H -2.27530e-02 -1.40775e-02  4.53118e-02
       O  6.06581e-02  5.23388e-03 -9.72638e-03
       H -6.40262e-03  3.79596e-03 -9.68259e-04
       H -6.14494e-02 -1.69264e-03  1.66125e-02
       O  1.48705e-02 -1.33442e-02 -1.77993e-02
       H -9.81986e-03  4.08633e-03 -3.02650e-03
       H -5.38384e-03  6.46215e-03  2.18219e-02
       O -5.39124e-02  2.68313e-02 -1.26357e-02
       H  4.91494e-03 -3.79989e-02  6.16152e-03
       H  3.55610e-02  4.67214e-03  9.12644e-03
       O  6.99483e-02  3.02513e-02 -4.74909e-02
       H -2.56927e-02 -2.95677e-02 -2.64691e-03
       H -4.16088e-02 -6.96715e-05  4.61110e-02
       O  6.76524e-02 -2.93199e-02  1.76205e-02
       H -7.40627e-02  3.45603e-02 -9.36964e-03
       H -8.61856e-04 -1.78653e-03 -1.58415e-03
       O -9.34212e-04  2.35385e-03 -2.09878e-02
       H  1.56453e-02  1.06710e-02  1.26705e-02
       H -5.05673e-03 -7.90299e-03  5.26832e-03
       O  5.07938e-02 -1.14518e-01  2.89458e-02
       H  2.35104e-02  6.09083e-02 -1.49173e-02
       H -7.24241e-02  5.17336e-02 -1.28402e-02
       O -1.74097e-02 -2.55381e-02 -2.64836e-02
       H  3.80576e-03  1.46987e-02 -1.21581e-02
       H  3.81085e-03  4.78440e-03  4.09019e-02
       O -6.49919e-04  2.45066e-02  8.22014e-02
       H -9.29251e-03 -2.70661e-02 -1.53590e-02
       H  1.42536e-02  1.45828e-02 -6.88536e-02
       O -4.68414e-03  6.00849e-03 -8.51334e-03
       H -6.02079e-03 -9.46068e-03  1.61148e-02
       H  9.78832e-03  7.38922e-03 -1.00365e-02
       O -1.79721e-02  4.19853e-02  6.08375e-02
       H -2.45527e-03 -7.74748e-03  5.71014e-03
       H  1.67871e-02 -4.24153e-02 -6.37735e-02
       O  8.04066e-02  1.20743e-02  4.87667e-02
       H -6.58725e-02 -3.31987e-02 -2.45776e-02
       H -1.60980e-02  2.15904e-02 -1.96030e-02
       O -8.04358e-02  1.77738e-02  5.16280e-02
       H  6.70979e-02  1.84219e-02 -3.62438e-02
       H  1.71228e-02 -4.12662e-02 -1.75119e-02
       O  4.47508e-02  3.08496e-02  5.27598e-02
       H -4.19415e-02 -2.90618e-02 -4.49507e-02
       H  4.25433e-03  7.51216e-03 -4.63957e-03
       O -5.81711e-03 -3.11644e-02 -6.49037e-03
       H -7.04183e-03  1.56095e-03 -1.33529e-02
       H  1.29947e-02  2.87968e-02  2.88701e-02
       O  5.74007e-02 -3.68403e-02 -2.35070e-02
       H -4.91358e-02  3.97203e-02 -1.11167e-02
       H -1.86226e-02 -2.47407e-03  3.20109e-02
       O -5.50328e-02  7.72420e-02  1.63805e-02
       H  1.20134e-04 -1.68793e-02 -1.06767e-03
       H  5.76965e-02 -5.03311e-02 -1.58265e-02
       O -5.57940e-02 -3.82768e-02  2.88846e-02
       H -6.85728e-03  1.33921e-02 -1.27155e-02
       H  5.53781e-02  2.51523e-02 -2.03255e-02
       O  6.40496e-03  5.92241e-02 -3.33700e-02
       H -3.00586e-03 -4.39951e-02  2.33324e-02
       H  1.83474e-03 -1.40928e-02  4.73293e-03
       O -5.95209e-03  1.06065e-01  4.51164e-02
       H  3.56135e-02 -7.03087e-02 -1.15840e-02
       H -4.04045e-02 -3.06627e-02 -2.65517e-02
       O  3.84216e-02  4.58670e-02 -3.27943e-02
       H -3.38406e-02 -2.05072e-02  1.34275e-02
       H  3.05612e-03 -2.69176e-02  6.50239e-03
       O  4.70888e-03  4.00591e-02 -1.23525e-03
       H  1.64792e-03  2.24690e-02 -3.60588e-03
       H  4.06575e-03 -5.95924e-02  4.50100e-03
       O -1.46063e-02 -1.38305e-02 -4.48288e-02
       H -1.10891e-02  1.28019e-02  1.62606e-02
       H  2.24539e-02  3.93909e-03  3.25313e-02
       O  3.17494e-02  1.65193e-02 -7.73937e-02
       H -2.59627e-02 -5.73131e-03  5.77583e-02
       H -1.00516e-02 -1.05436e-02  1.28887e-02
       O -3.04068e-02 -4.85467e-02 -2.19312e-02
       H  3.65327e-02  2.20723e-02 -1.68899e-03
       H -5.96348e-03  3.23719e-02  3.02206e-02
       O  2.28321e-02  1.65917e-02  1.22122e-03
       H -7.31055e-03 -1.45998e-02  4.29308e-03
       H -1.43604e-02 -2.34214e-03 -1.37543e-02
       O  7.16477e-02  2.28546e-03  8.25533e-02
       H -2.80550e-02  3.82156e-02 -1.94069e-02
       H -3.84556e-02 -3.86574e-02 -6.60548e-02
       O -5.80158e-02  1.46897e-02 -1.72367e-02
       H  4.86950e-02 -1.07952e-02  9.39440e-04
       H  5.83820e-03 -7.66624e-03  1.51351e-02
       O  3.69646e-02  3.67407e-02  3.95902e-02
       H -1.59017e-02 -1.09099e-02 -2.67882e-02
       H -2.10934e-02 -2.10340e-02 -1.22295e-02
       O -1.97575e-02  7.43184e-02 -4.00039e-02
       H -2.02804e-02 -3.88214e-03  2.41655e-02
       H  3.64819e-02 -6.94853e-02  1.04053e-02
       O  1.81653e-02 -6.28833e-02 -1.53674e-03
       H  3.56452e-03  5.02759e-02  1.14905e-02
       H -1.40885e-02  1.20616e-02 -1.22242e-02
       O -3.82412e-03 -1.91780e-02  9.55413e-03
       H  1.16927e-03  5.13263e-02 -1.70897e-03
       H -4.93478e-04 -3.84098e-02 -1.96687e-02
       O  1.66225e-02 -7.61772e-03 -1.56253e-03
       H  4.92886e-03  1.04711e-02 -1.79378e-03
       H -2.21830e-02 -5.97673e-03  1.08514e-02
       O -1.74721e-02  3.33747e-02  3.92868e-02
       H -3.65655e-03  3.30999e-02  2.36728e-03
       H  2.11081e-02 -6.73447e-02 -3.86002e-02
       O  6.03022e-02  6.53286e-03 -1.83956e-02
       H -4.55562e-03  4.07268e-03  1.34642e-03
       H -5.71866e-02 -7.27400e-03  2.00137e-02
       O -1.97909e-02 -3.73482e-02  3.23600e-02
       H  1.47168e-02  2.95678e-02 -3.25997e-02
       H  5.00434e-03  8.35293e-03  3.06752e-04
       O -3.83970e-02  3.26619e-02 -3.63135e-02
       H  9.94203e-03 -1.20110e-02 -1.06666e-02
       H  2.87921e-02 -2.07996e-02  5.28286e-02
       O -6.67896e-02  1.98344e-02 -3.09618e-02
       H  2.69924e-02 -1.45995e-02  2.90507e-02
       H  3.43667e-02 -1.32119e-02 -7.31996e-03
       O  1.85628e-02 -5.94964e-02 -1.02561e-02
       H  6.23027e-04  4.11932e-02 -9.03991e-04
       H -2.55017e-02  2.71442e-02  1.60445e-02
       O  4.44059e-02  2.88949e-02  1.45270e-02
       H  8.34432e-03  4.27195e-03  9.66551e-04
       H -4.23546e-02 -3.35107e-02 -1.39037e-02
       O -3.15994e-02  4.80606e-02  4.10762e-03
       H -1.59126e-02 -3.76361e-02  3.03710e-02
       H  4.49620e-02 -1.12106e-02 -3.10058e-02
       O -6.73640e-02  4.60251e-02 -4.91961e-02
       H  6.10082e-02 -4.26941e-02  2.57953e-02
       H  4.67527e-03  4.16177e-03  1.75270e-02
       O  3.69067e-02 -3.27936e-02  8.60848e-02
       H  4.87476e-03  2.08692e-03  8.70556e-03
       H -4.61967e-02  2.59670e-02 -8.58983e-02
       O  2.95056e-02 -2.63643e-02  3.33365e-02
       H -1.09348e-02  7.92391e-03  5.50941e-04
       H -1.22211e-02  1.47717e-02 -3.25565e-02
       O -2.83372e-02  2.63178e-02 -3.70459e-02
       H  2.11029e-02 -1.32994e-02  7.78889e-03
       H  6.58659e-03 -4.53973e-03  2.68913e-02
       O -3.74832e-03 -3.83648e-02 -1.75261e-02
       H  9.35532e-03 -1.24226e-02 -7.94305e-03
       H -1.33929e-02  2.77269e-02  1.87511e-02
       O -8.28510e-02  1.31752e-02 -2.83289e-02
       H  8.79208e-02  5.95316e-03  1.35775e-02
       H  2.12480e-03 -1.96190e-02  1.58955e-02
       O -2.53862e-02 -1.86609e-02  2.44552e-02
       H  2.00897e-02  1.99468e-02 -2.77710e-02
       H  4.71117e-03 -5.78839e-03  4.61296e-04
       O -3.37997e-02  2.32463e-02 -2.81815e-02
       H -1.58567e-02 -2.82173e-02  2.30381e-03
       H  4.83133e-02  8.60319e-03  2.25644e-02
       O -7.69251e-02  1.72262e-03  4.99837e-02
       H  3.22482e-02 -2.19278e-02 -2.35763e-02
       H  4.24854e-02  2.22046e-02 -2.34102e-02
       O -2.14077e-02  5.03924e-02  2.54493e-02
       H  2.26486e-02 -1.41805e-02 -5.79571e-04
       H  3.19513e-03 -2.78403e-02 -2.51442e-02
       O -1.36273e-02  1.17223e-02  1.47766e-03
       H -2.70178e-03  6.11274e-03  1.11236e-02
       H  1.77859e-02  3.97980e-03 -3.04148e-03
       O  1.52394e-02  2.89397e-02  5.21328e-03
       H -2.15016e-02 -2.12242e-02 -1.26132e-02
       H -5.65812e-03 -1.54885e-02 -8.86414e-03
       O  3.74375e-02 -1.30628e-01  2.54731e-02
       H  1.65775e-03  1.12599e-01 -6.11024e-03
       H -4.33117e-02  1.55861e-02 -1.82562e-02
       O  7.46652e-02  4.74533e-02 -2.39557e-02
       H -6.89080e-02  1.77179e-02  2.47033e-02
       H  4.39169e-04 -5.99443e-02 -4.24143e-03
       O  2.37409e-02  5.28335e-02 -3.48231e-02
       H  1.20471e-02 -1.44470e-02 -7.13342e-03
       H -3.10945e-02 -3.44482e-02  4.11250e-02
       O  1.45024e-02  1.42957e-02 -9.92960e-02
       H -3.50883e-02 -1.35522e-02  4.03992e-02
       H  2.24088e-02 -6.34960e-03  5.64114e-02
       O  6.19632e-02  2.80351e-02  1.10480e-03
       H -3.08106e-02 -3.80698e-03 -2.26931e-02
       H -2.59838e-02 -3.28338e-02  2.43788e-02
       O -5.42732e-02  2.81916e-03  2.26927e-02
       H  1.12961e-02 -2.08361e-02  2.13244e-02
       H  4.11329e-02  1.75422e-02 -4.35582e-02
       O -3.42281e-02  7.89663e-02  3.13237e-02
       H  1.49188e-02 -4.61362e-02 -3.56527e-02
       H  1.77028e-02 -4.74317e-02  4.73794e-03